# vtk DataFile Version 2.0
zx_mesh
ASCII
DATASET STRUCTURED_GRID
DIMENSIONS         7         1         7
POINTS        49 float
   0.0000000000000000       -3.1415926535897931        0.0000000000000000     
   1.0471975511965976       -3.1415926535897931        0.0000000000000000     
   2.0943951023931953       -3.1415926535897931        0.0000000000000000     
   3.1415926535897931       -3.1415926535897931        0.0000000000000000     
   4.1887902047863905       -3.1415926535897931        0.0000000000000000     
   5.2359877559829879       -3.1415926535897931        0.0000000000000000     
   6.2831853071795862       -3.1415926535897931        0.0000000000000000     
   0.0000000000000000       -3.1415926535897931        1.0471975511965976     
   1.0471975511965976       -3.1415926535897931        1.0471975511965976     
   2.0943951023931953       -3.1415926535897931        1.0471975511965976     
   3.1415926535897931       -3.1415926535897931        1.0471975511965976     
   4.1887902047863905       -3.1415926535897931        1.0471975511965976     
   5.2359877559829879       -3.1415926535897931        1.0471975511965976     
   6.2831853071795862       -3.1415926535897931        1.0471975511965976     
   0.0000000000000000       -3.1415926535897931        2.0943951023931953     
   1.0471975511965976       -3.1415926535897931        2.0943951023931953     
   2.0943951023931953       -3.1415926535897931        2.0943951023931953     
   3.1415926535897931       -3.1415926535897931        2.0943951023931953     
   4.1887902047863905       -3.1415926535897931        2.0943951023931953     
   5.2359877559829879       -3.1415926535897931        2.0943951023931953     
   6.2831853071795862       -3.1415926535897931        2.0943951023931953     
   0.0000000000000000       -3.1415926535897931        3.1415926535897931     
   1.0471975511965976       -3.1415926535897931        3.1415926535897931     
   2.0943951023931953       -3.1415926535897931        3.1415926535897931     
   3.1415926535897931       -3.1415926535897931        3.1415926535897931     
   4.1887902047863905       -3.1415926535897931        3.1415926535897931     
   5.2359877559829879       -3.1415926535897931        3.1415926535897931     
   6.2831853071795862       -3.1415926535897931        3.1415926535897931     
   0.0000000000000000       -3.1415926535897931        4.1887902047863905     
   1.0471975511965976       -3.1415926535897931        4.1887902047863905     
   2.0943951023931953       -3.1415926535897931        4.1887902047863905     
   3.1415926535897931       -3.1415926535897931        4.1887902047863905     
   4.1887902047863905       -3.1415926535897931        4.1887902047863905     
   5.2359877559829879       -3.1415926535897931        4.1887902047863905     
   6.2831853071795862       -3.1415926535897931        4.1887902047863905     
   0.0000000000000000       -3.1415926535897931        5.2359877559829879     
   1.0471975511965976       -3.1415926535897931        5.2359877559829879     
   2.0943951023931953       -3.1415926535897931        5.2359877559829879     
   3.1415926535897931       -3.1415926535897931        5.2359877559829879     
   4.1887902047863905       -3.1415926535897931        5.2359877559829879     
   5.2359877559829879       -3.1415926535897931        5.2359877559829879     
   6.2831853071795862       -3.1415926535897931        5.2359877559829879     
   0.0000000000000000       -3.1415926535897931        6.2831853071795862     
   1.0471975511965976       -3.1415926535897931        6.2831853071795862     
   2.0943951023931953       -3.1415926535897931        6.2831853071795862     
   3.1415926535897931       -3.1415926535897931        6.2831853071795862     
   4.1887902047863905       -3.1415926535897931        6.2831853071795862     
   5.2359877559829879       -3.1415926535897931        6.2831853071795862     
   6.2831853071795862       -3.1415926535897931        6.2831853071795862     
CELL_DATA        36
SCALARS p float        36
LOOKUP_TABLE default
  0.49999999999999994     
   1.0000000000000000     
  0.50000000000000033     
 -0.49999999999999972     
  -1.0000000000000000     
 -0.50000000000000044     
   1.0000000000000000     
   1.5000000000000000     
   1.0000000000000004     
   3.3306690738754696E-016
 -0.50000000000000000     
  -4.4408920985006262E-016
  0.50000000000000033     
   1.0000000000000004     
  0.50000000000000067     
 -0.49999999999999933     
 -0.99999999999999967     
 -0.50000000000000011     
 -0.49999999999999972     
   2.7755575615628914E-016
 -0.49999999999999933     
  -1.4999999999999993     
  -1.9999999999999998     
  -1.5000000000000002     
  -1.0000000000000000     
 -0.50000000000000000     
 -0.99999999999999956     
  -1.9999999999999996     
  -2.5000000000000000     
  -2.0000000000000004     
 -0.50000000000000044     
  -4.4408920985006262E-016
 -0.50000000000000000     
  -1.5000000000000000     
  -2.0000000000000004     
  -1.5000000000000009     
CELL_DATA        36
SCALARS p float        36
LOOKUP_TABLE default
  0.49999999999999994     
   1.0000000000000000     
  0.50000000000000033     
 -0.49999999999999972     
  -1.0000000000000000     
 -0.50000000000000044     
   1.0000000000000000     
   1.5000000000000000     
   1.0000000000000004     
   3.3306690738754696E-016
 -0.50000000000000000     
  -4.4408920985006262E-016
  0.50000000000000033     
   1.0000000000000004     
  0.50000000000000067     
 -0.49999999999999933     
 -0.99999999999999967     
 -0.50000000000000011     
 -0.49999999999999972     
   2.7755575615628914E-016
 -0.49999999999999933     
  -1.4999999999999993     
  -1.9999999999999998     
  -1.5000000000000002     
  -1.0000000000000000     
 -0.50000000000000000     
 -0.99999999999999956     
  -1.9999999999999996     
  -2.5000000000000000     
  -2.0000000000000004     
 -0.50000000000000044     
  -4.4408920985006262E-016
 -0.50000000000000000     
  -1.5000000000000000     
  -2.0000000000000004     
  -1.5000000000000009     
CELL_DATA        36
SCALARS p float        36
LOOKUP_TABLE default
  0.49999999999999994     
   1.0000000000000000     
  0.50000000000000033     
 -0.49999999999999972     
  -1.0000000000000000     
 -0.50000000000000044     
   1.0000000000000000     
   1.5000000000000000     
   1.0000000000000004     
   3.3306690738754696E-016
 -0.50000000000000000     
  -4.4408920985006262E-016
  0.50000000000000033     
   1.0000000000000004     
  0.50000000000000067     
 -0.49999999999999933     
 -0.99999999999999967     
 -0.50000000000000011     
 -0.49999999999999972     
   2.7755575615628914E-016
 -0.49999999999999933     
  -1.4999999999999993     
  -1.9999999999999998     
  -1.5000000000000002     
  -1.0000000000000000     
 -0.50000000000000000     
 -0.99999999999999956     
  -1.9999999999999996     
  -2.5000000000000000     
  -2.0000000000000004     
 -0.50000000000000044     
  -4.4408920985006262E-016
 -0.50000000000000000     
  -1.5000000000000000     
  -2.0000000000000004     
  -1.5000000000000009     
CELL_DATA        36
SCALARS p float        36
LOOKUP_TABLE default
  0.49999999999999994     
   1.0000000000000000     
  0.50000000000000033     
 -0.49999999999999972     
  -1.0000000000000000     
 -0.50000000000000044     
   1.0000000000000000     
   1.5000000000000000     
   1.0000000000000004     
   3.3306690738754696E-016
 -0.50000000000000000     
  -4.4408920985006262E-016
  0.50000000000000033     
   1.0000000000000004     
  0.50000000000000067     
 -0.49999999999999933     
 -0.99999999999999967     
 -0.50000000000000011     
 -0.49999999999999972     
   2.7755575615628914E-016
 -0.49999999999999933     
  -1.4999999999999993     
  -1.9999999999999998     
  -1.5000000000000002     
  -1.0000000000000000     
 -0.50000000000000000     
 -0.99999999999999956     
  -1.9999999999999996     
  -2.5000000000000000     
  -2.0000000000000004     
 -0.50000000000000044     
  -4.4408920985006262E-016
 -0.50000000000000000     
  -1.5000000000000000     
  -2.0000000000000004     
  -1.5000000000000009     
CELL_DATA        36
SCALARS p float        36
LOOKUP_TABLE default
  0.49999999999999994     
   1.0000000000000000     
  0.50000000000000033     
 -0.49999999999999972     
  -1.0000000000000000     
 -0.50000000000000044     
   1.0000000000000000     
   1.5000000000000000     
   1.0000000000000004     
   3.3306690738754696E-016
 -0.50000000000000000     
  -4.4408920985006262E-016
  0.50000000000000033     
   1.0000000000000004     
  0.50000000000000067     
 -0.49999999999999933     
 -0.99999999999999967     
 -0.50000000000000011     
 -0.49999999999999972     
   2.7755575615628914E-016
 -0.49999999999999933     
  -1.4999999999999993     
  -1.9999999999999998     
  -1.5000000000000002     
  -1.0000000000000000     
 -0.50000000000000000     
 -0.99999999999999956     
  -1.9999999999999996     
  -2.5000000000000000     
  -2.0000000000000004     
 -0.50000000000000044     
  -4.4408920985006262E-016
 -0.50000000000000000     
  -1.5000000000000000     
  -2.0000000000000004     
  -1.5000000000000009     
CELL_DATA        36
SCALARS p float        36
LOOKUP_TABLE default
  0.49999999999999994     
   1.0000000000000000     
  0.50000000000000033     
 -0.49999999999999972     
  -1.0000000000000000     
 -0.50000000000000044     
   1.0000000000000000     
   1.5000000000000000     
   1.0000000000000004     
   3.3306690738754696E-016
 -0.50000000000000000     
  -4.4408920985006262E-016
  0.50000000000000033     
   1.0000000000000004     
  0.50000000000000067     
 -0.49999999999999933     
 -0.99999999999999967     
 -0.50000000000000011     
 -0.49999999999999972     
   2.7755575615628914E-016
 -0.49999999999999933     
  -1.4999999999999993     
  -1.9999999999999998     
  -1.5000000000000002     
  -1.0000000000000000     
 -0.50000000000000000     
 -0.99999999999999956     
  -1.9999999999999996     
  -2.5000000000000000     
  -2.0000000000000004     
 -0.50000000000000044     
  -4.4408920985006262E-016
 -0.50000000000000000     
  -1.5000000000000000     
  -2.0000000000000004     
  -1.5000000000000009     
CELL_DATA        36
SCALARS p float        36
LOOKUP_TABLE default
  0.49999999999999994     
   1.0000000000000000     
  0.50000000000000033     
 -0.49999999999999972     
  -1.0000000000000000     
 -0.50000000000000044     
   1.0000000000000000     
   1.5000000000000000     
   1.0000000000000004     
   3.3306690738754696E-016
 -0.50000000000000000     
  -4.4408920985006262E-016
  0.50000000000000033     
   1.0000000000000004     
  0.50000000000000067     
 -0.49999999999999933     
 -0.99999999999999967     
 -0.50000000000000011     
 -0.49999999999999972     
   2.7755575615628914E-016
 -0.49999999999999933     
  -1.4999999999999993     
  -1.9999999999999998     
  -1.5000000000000002     
  -1.0000000000000000     
 -0.50000000000000000     
 -0.99999999999999956     
  -1.9999999999999996     
  -2.5000000000000000     
  -2.0000000000000004     
 -0.50000000000000044     
  -4.4408920985006262E-016
 -0.50000000000000000     
  -1.5000000000000000     
  -2.0000000000000004     
  -1.5000000000000009     
CELL_DATA        36
SCALARS p float        36
LOOKUP_TABLE default
  0.49999999999999994     
   1.0000000000000000     
  0.50000000000000033     
 -0.49999999999999972     
  -1.0000000000000000     
 -0.50000000000000044     
   1.0000000000000000     
   1.5000000000000000     
   1.0000000000000004     
   3.3306690738754696E-016
 -0.50000000000000000     
  -4.4408920985006262E-016
  0.50000000000000033     
   1.0000000000000004     
  0.50000000000000067     
 -0.49999999999999933     
 -0.99999999999999967     
 -0.50000000000000011     
 -0.49999999999999972     
   2.7755575615628914E-016
 -0.49999999999999933     
  -1.4999999999999993     
  -1.9999999999999998     
  -1.5000000000000002     
  -1.0000000000000000     
 -0.50000000000000000     
 -0.99999999999999956     
  -1.9999999999999996     
  -2.5000000000000000     
  -2.0000000000000004     
 -0.50000000000000044     
  -4.4408920985006262E-016
 -0.50000000000000000     
  -1.5000000000000000     
  -2.0000000000000004     
  -1.5000000000000009     
CELL_DATA        36
SCALARS p float        36
LOOKUP_TABLE default
  0.49999999999999994     
   1.0000000000000000     
  0.50000000000000033     
 -0.49999999999999972     
  -1.0000000000000000     
 -0.50000000000000044     
   1.0000000000000000     
   1.5000000000000000     
   1.0000000000000004     
   3.3306690738754696E-016
 -0.50000000000000000     
  -4.4408920985006262E-016
  0.50000000000000033     
   1.0000000000000004     
  0.50000000000000067     
 -0.49999999999999933     
 -0.99999999999999967     
 -0.50000000000000011     
 -0.49999999999999972     
   2.7755575615628914E-016
 -0.49999999999999933     
  -1.4999999999999993     
  -1.9999999999999998     
  -1.5000000000000002     
  -1.0000000000000000     
 -0.50000000000000000     
 -0.99999999999999956     
  -1.9999999999999996     
  -2.5000000000000000     
  -2.0000000000000004     
 -0.50000000000000044     
  -4.4408920985006262E-016
 -0.50000000000000000     
  -1.5000000000000000     
  -2.0000000000000004     
  -1.5000000000000009     
CELL_DATA        36
SCALARS p float        36
LOOKUP_TABLE default
  0.49999999999999994     
   1.0000000000000000     
  0.50000000000000033     
 -0.49999999999999972     
  -1.0000000000000000     
 -0.50000000000000044     
   1.0000000000000000     
   1.5000000000000000     
   1.0000000000000004     
   3.3306690738754696E-016
 -0.50000000000000000     
  -4.4408920985006262E-016
  0.50000000000000033     
   1.0000000000000004     
  0.50000000000000067     
 -0.49999999999999933     
 -0.99999999999999967     
 -0.50000000000000011     
 -0.49999999999999972     
   2.7755575615628914E-016
 -0.49999999999999933     
  -1.4999999999999993     
  -1.9999999999999998     
  -1.5000000000000002     
  -1.0000000000000000     
 -0.50000000000000000     
 -0.99999999999999956     
  -1.9999999999999996     
  -2.5000000000000000     
  -2.0000000000000004     
 -0.50000000000000044     
  -4.4408920985006262E-016
 -0.50000000000000000     
  -1.5000000000000000     
  -2.0000000000000004     
  -1.5000000000000009     
CELL_DATA        36
SCALARS p float        36
LOOKUP_TABLE default
  0.49999999999999994     
   1.0000000000000000     
  0.50000000000000033     
 -0.49999999999999972     
  -1.0000000000000000     
 -0.50000000000000044     
   1.0000000000000000     
   1.5000000000000000     
   1.0000000000000004     
   3.3306690738754696E-016
 -0.50000000000000000     
  -4.4408920985006262E-016
  0.50000000000000033     
   1.0000000000000004     
  0.50000000000000067     
 -0.49999999999999933     
 -0.99999999999999967     
 -0.50000000000000011     
 -0.49999999999999972     
   2.7755575615628914E-016
 -0.49999999999999933     
  -1.4999999999999993     
  -1.9999999999999998     
  -1.5000000000000002     
  -1.0000000000000000     
 -0.50000000000000000     
 -0.99999999999999956     
  -1.9999999999999996     
  -2.5000000000000000     
  -2.0000000000000004     
 -0.50000000000000044     
  -4.4408920985006262E-016
 -0.50000000000000000     
  -1.5000000000000000     
  -2.0000000000000004     
  -1.5000000000000009     
CELL_DATA        36
SCALARS p float        36
LOOKUP_TABLE default
  0.49999999999999994     
   1.0000000000000000     
  0.50000000000000033     
 -0.49999999999999972     
  -1.0000000000000000     
 -0.50000000000000044     
   1.0000000000000000     
   1.5000000000000000     
   1.0000000000000004     
   3.3306690738754696E-016
 -0.50000000000000000     
  -4.4408920985006262E-016
  0.50000000000000033     
   1.0000000000000004     
  0.50000000000000067     
 -0.49999999999999933     
 -0.99999999999999967     
 -0.50000000000000011     
 -0.49999999999999972     
   2.7755575615628914E-016
 -0.49999999999999933     
  -1.4999999999999993     
  -1.9999999999999998     
  -1.5000000000000002     
  -1.0000000000000000     
 -0.50000000000000000     
 -0.99999999999999956     
  -1.9999999999999996     
  -2.5000000000000000     
  -2.0000000000000004     
 -0.50000000000000044     
  -4.4408920985006262E-016
 -0.50000000000000000     
  -1.5000000000000000     
  -2.0000000000000004     
  -1.5000000000000009     
CELL_DATA        36
SCALARS p float        36
LOOKUP_TABLE default
  0.49999999999999994     
   1.0000000000000000     
  0.50000000000000033     
 -0.49999999999999972     
  -1.0000000000000000     
 -0.50000000000000044     
   1.0000000000000000     
   1.5000000000000000     
   1.0000000000000004     
   3.3306690738754696E-016
 -0.50000000000000000     
  -4.4408920985006262E-016
  0.50000000000000033     
   1.0000000000000004     
  0.50000000000000067     
 -0.49999999999999933     
 -0.99999999999999967     
 -0.50000000000000011     
 -0.49999999999999972     
   2.7755575615628914E-016
 -0.49999999999999933     
  -1.4999999999999993     
  -1.9999999999999998     
  -1.5000000000000002     
  -1.0000000000000000     
 -0.50000000000000000     
 -0.99999999999999956     
  -1.9999999999999996     
  -2.5000000000000000     
  -2.0000000000000004     
 -0.50000000000000044     
  -4.4408920985006262E-016
 -0.50000000000000000     
  -1.5000000000000000     
  -2.0000000000000004     
  -1.5000000000000009     
CELL_DATA      4096
SCALARS p float      4096
LOOKUP_TABLE default
   4.9067674327418064E-002
  0.14673047445536180     
  0.24298017990326393     
  0.33688985339222011     
  0.42755509343028208     
  0.51410274419322166     
  0.59569930449243336     
  0.67155895484701833     
  0.74095112535495911     
  0.80320753148064483     
  0.85772861000027212     
  0.90398929312344334     
  0.94154406518302081     
  0.97003125319454397     
  0.98917650996478101     
  0.99879545620517241     
  0.99879545620517241     
  0.98917650996478101     
  0.97003125319454397     
  0.94154406518302081     
  0.90398929312344345     
  0.85772861000027212     
  0.80320753148064494     
  0.74095112535495899     
  0.67155895484701855     
  0.59569930449243347     
  0.51410274419322177     
  0.42755509343028208     
  0.33688985339222033     
  0.24298017990326412     
  0.14673047445536186     
   4.9067674327418015E-002
  -4.9067674327417682E-002
 -0.14673047445536153     
 -0.24298017990326379     
 -0.33688985339222011     
 -0.42755509343028175     
 -0.51410274419322155     
 -0.59569930449243325     
 -0.67155895484701844     
 -0.74095112535495888     
 -0.80320753148064505     
 -0.85772861000027201     
 -0.90398929312344312     
 -0.94154406518302081     
 -0.97003125319454397     
 -0.98917650996478079     
 -0.99879545620517229     
 -0.99879545620517229     
 -0.98917650996478079     
 -0.97003125319454397     
 -0.94154406518302092     
 -0.90398929312344334     
 -0.85772861000027223     
 -0.80320753148064528     
 -0.74095112535495911     
 -0.67155895484701866     
 -0.59569930449243325     
 -0.51410274419322188     
 -0.42755509343028253     
 -0.33688985339222000     
 -0.24298017990326412     
 -0.14673047445536233     
  -4.9067674327418043E-002
  0.14673047445536180     
  0.24439327458330554     
  0.34064298003120763     
  0.43455265352016381     
  0.52521789355822590     
  0.61176554432116537     
  0.69336210462037706     
  0.76922175497496204     
  0.83861392548290281     
  0.90087033160858865     
  0.95539141012821593     
   1.0016520932513870     
   1.0392068653109645     
   1.0676940533224877     
   1.0868393100927247     
   1.0964582563331162     
   1.0964582563331162     
   1.0868393100927247     
   1.0676940533224877     
   1.0392068653109645     
   1.0016520932513873     
  0.95539141012821593     
  0.90087033160858865     
  0.83861392548290281     
  0.76922175497496226     
  0.69336210462037728     
  0.61176554432116559     
  0.52521789355822579     
  0.43455265352016409     
  0.34064298003120785     
  0.24439327458330559     
  0.14673047445536175     
   4.8595125800526051E-002
  -4.9067674327417793E-002
 -0.14531737977532005     
 -0.23922705326427635     
 -0.32989229330233805     
 -0.41643994406527779     
 -0.49803650436448949     
 -0.57389615471907462     
 -0.64328832522701518     
 -0.70554473135270124     
 -0.76006580987232830     
 -0.80632649299549941     
 -0.84388126505507710     
 -0.87236845306660027     
 -0.89151370983683709     
 -0.90113265607722859     
 -0.90113265607722859     
 -0.89151370983683709     
 -0.87236845306660027     
 -0.84388126505507710     
 -0.80632649299549963     
 -0.76006580987232852     
 -0.70554473135270146     
 -0.64328832522701540     
 -0.57389615471907485     
 -0.49803650436448949     
 -0.41643994406527812     
 -0.32989229330233877     
 -0.23922705326427623     
 -0.14531737977532039     
  -4.9067674327418598E-002
   4.8595125800525690E-002
  0.24298017990326393     
  0.34064298003120763     
  0.43689268547910975     
  0.53080235896806593     
  0.62146759900612802     
  0.70801524976906749     
  0.78961181006827919     
  0.86547146042286416     
  0.93486363093080493     
  0.99712003705649077     
   1.0516411155761181     
   1.0979017986992892     
   1.1354565707588666     
   1.1639437587703898     
   1.1830890155406268     
   1.1927079617810183     
   1.1927079617810183     
   1.1830890155406268     
   1.1639437587703898     
   1.1354565707588666     
   1.0979017986992894     
   1.0516411155761181     
  0.99712003705649077     
  0.93486363093080493     
  0.86547146042286438     
  0.78961181006827941     
  0.70801524976906771     
  0.62146759900612791     
  0.53080235896806616     
  0.43689268547910998     
  0.34064298003120774     
  0.24298017990326387     
  0.14484483124842817     
   4.7182031120484330E-002
  -4.9067674327417932E-002
 -0.14297734781637422     
 -0.23364258785443592     
 -0.32019023861737567     
 -0.40178679891658736     
 -0.47764644927117256     
 -0.54703861977911306     
 -0.60929502590479911     
 -0.66381610442442618     
 -0.71007678754759729     
 -0.74763155960717498     
 -0.77611874761869815     
 -0.79526400438893496     
 -0.80488295062932647     
 -0.80488295062932647     
 -0.79526400438893496     
 -0.77611874761869815     
 -0.74763155960717498     
 -0.71007678754759751     
 -0.66381610442442640     
 -0.60929502590479934     
 -0.54703861977911328     
 -0.47764644927117278     
 -0.40178679891658736     
 -0.32019023861737600     
 -0.23364258785443665     
 -0.14297734781637411     
  -4.9067674327418265E-002
   4.7182031120483525E-002
  0.14484483124842781     
  0.33688985339222011     
  0.43455265352016381     
  0.53080235896806593     
  0.62471203245702212     
  0.71537727249508420     
  0.80192492325802367     
  0.88352148355723537     
  0.95938113391182034     
   1.0287733044197611     
   1.0910297105454470     
   1.1455507890650742     
   1.1918114721882453     
   1.2293662442478228     
   1.2578534322593460     
   1.2769986890295830     
   1.2866176352699745     
   1.2866176352699745     
   1.2769986890295830     
   1.2578534322593460     
   1.2293662442478228     
   1.1918114721882456     
   1.1455507890650742     
   1.0910297105454470     
   1.0287733044197611     
  0.95938113391182056     
  0.88352148355723559     
  0.80192492325802389     
  0.71537727249508409     
  0.62471203245702234     
  0.53080235896806616     
  0.43455265352016392     
  0.33688985339222005     
  0.23875450473738435     
  0.14109170460944051     
   4.4841999161538248E-002
  -4.9067674327418043E-002
 -0.13973291436547974     
 -0.22628056512841949     
 -0.30787712542763118     
 -0.38373677578221638     
 -0.45312894629015682     
 -0.51538535241584293     
 -0.56990643093547000     
 -0.61616711405864111     
 -0.65372188611821880     
 -0.68220907412974197     
 -0.70135433089997878     
 -0.71097327714037029     
 -0.71097327714037029     
 -0.70135433089997878     
 -0.68220907412974197     
 -0.65372188611821880     
 -0.61616711405864133     
 -0.56990643093547022     
 -0.51538535241584316     
 -0.45312894629015704     
 -0.38373677578221660     
 -0.30787712542763118     
 -0.22628056512841982     
 -0.13973291436548047     
  -4.9067674327417932E-002
   4.4841999161537915E-002
  0.14109170460943971     
  0.23875450473738399     
  0.42755509343028214     
  0.52521789355822590     
  0.62146759900612802     
  0.71537727249508420     
  0.80604251253314618     
  0.89259016329608576     
  0.97418672359529745     
   1.0500463739498824     
   1.1194385444578232     
   1.1816949505835090     
   1.2362160291031361     
   1.2824767122263074     
   1.3200314842858849     
   1.3485186722974081     
   1.3676639290676451     
   1.3772828753080364     
   1.3772828753080364     
   1.3676639290676451     
   1.3485186722974081     
   1.3200314842858849     
   1.2824767122263077     
   1.2362160291031361     
   1.1816949505835090     
   1.1194385444578230     
   1.0500463739498826     
  0.97418672359529757     
  0.89259016329608587     
  0.80604251253314607     
  0.71537727249508443     
  0.62146759900612825     
  0.52521789355822590     
  0.42755509343028208     
  0.32941974477544639     
  0.23175694464750254     
  0.13550723919960028     
   4.1597565710643991E-002
  -4.9067674327417710E-002
 -0.13561532509035745     
 -0.21721188538956915     
 -0.29307153574415434     
 -0.36246370625209479     
 -0.42472011237778096     
 -0.47924119089740791     
 -0.52550187402057902     
 -0.56305664608015671     
 -0.59154383409167988     
 -0.61068909086191669     
 -0.62030803710230820     
 -0.62030803710230820     
 -0.61068909086191669     
 -0.59154383409167988     
 -0.56305664608015682     
 -0.52550187402057924     
 -0.47924119089740813     
 -0.42472011237778118     
 -0.36246370625209501     
 -0.29307153574415457     
 -0.21721188538956915     
 -0.13561532509035779     
  -4.9067674327418431E-002
   4.1597565710644102E-002
  0.13550723919959995     
  0.23175694464750174     
  0.32941974477544600     
  0.51410274419322166     
  0.61176554432116548     
  0.70801524976906760     
  0.80192492325802367     
  0.89259016329608576     
  0.97913781405902534     
   1.0607343743582369     
   1.1365940247128221     
   1.2059861952207629     
   1.2682426013464485     
   1.3227636798660758     
   1.3690243629892471     
   1.4065791350488244     
   1.4350663230603478     
   1.4542115798305848     
   1.4638305260709761     
   1.4638305260709761     
   1.4542115798305848     
   1.4350663230603478     
   1.4065791350488244     
   1.3690243629892471     
   1.3227636798660758     
   1.2682426013464485     
   1.2059861952207627     
   1.1365940247128221     
   1.0607343743582371     
  0.97913781405902545     
  0.89259016329608576     
  0.80192492325802400     
  0.70801524976906771     
  0.61176554432116548     
  0.51410274419322166     
  0.41596739553838596     
  0.31830459541044209     
  0.22205488996253986     
  0.12814521647358357     
   3.7479976435521867E-002
  -4.9067674327417876E-002
 -0.13066423462662957     
 -0.20652388498121477     
 -0.27591605548915521     
 -0.33817246161484138     
 -0.39269354013446833     
 -0.43895422325763944     
 -0.47650899531721713     
 -0.50499618332874030     
 -0.52414144009897712     
 -0.53376038633936862     
 -0.53376038633936862     
 -0.52414144009897712     
 -0.50499618332874030     
 -0.47650899531721724     
 -0.43895422325763966     
 -0.39269354013446856     
 -0.33817246161484160     
 -0.27591605548915543     
 -0.20652388498121499     
 -0.13066423462662957     
  -4.9067674327418209E-002
   3.7479976435521145E-002
  0.12814521647358368     
  0.22205488996253953     
  0.31830459541044132     
  0.41596739553838558     
  0.59569930449243336     
  0.69336210462037717     
  0.78961181006827930     
  0.88352148355723537     
  0.97418672359529745     
   1.0607343743582369     
   1.1423309346574486     
   1.2181905850120338     
   1.2875827555199746     
   1.3498391616456602     
   1.4043602401652875     
   1.4506209232884588     
   1.4881756953480361     
   1.5166628833595595     
   1.5358081401297965     
   1.5454270863701878     
   1.5454270863701878     
   1.5358081401297965     
   1.5166628833595595     
   1.4881756953480361     
   1.4506209232884588     
   1.4043602401652875     
   1.3498391616456602     
   1.2875827555199744     
   1.2181905850120338     
   1.1423309346574488     
   1.0607343743582371     
  0.97418672359529745     
  0.88352148355723570     
  0.78961181006827941     
  0.69336210462037717     
  0.59569930449243336     
  0.49756395583759766     
  0.39990115570965379     
  0.30365145026175155     
  0.20974177677279526     
  0.11907653673473356     
   3.2528885971793819E-002
  -4.9067674327417876E-002
 -0.12492732468200307     
 -0.19431949518994351     
 -0.25657590131562968     
 -0.31109697983525664     
 -0.35735766295842775     
 -0.39491243501800544     
 -0.42339962302952860     
 -0.44254487979976542     
 -0.45216382604015692     
 -0.45216382604015692     
 -0.44254487979976542     
 -0.42339962302952860     
 -0.39491243501800555     
 -0.35735766295842797     
 -0.31109697983525686     
 -0.25657590131562991     
 -0.19431949518994374     
 -0.12492732468200329     
  -4.9067674327417876E-002
   3.2528885971793486E-002
  0.11907653673473284     
  0.20974177677279537     
  0.30365145026175122     
  0.39990115570965301     
  0.49756395583759727     
  0.67155895484701833     
  0.76922175497496215     
  0.86547146042286427     
  0.95938113391182034     
   1.0500463739498824     
   1.1365940247128221     
   1.2181905850120338     
   1.2940502353666186     
   1.3634424058745593     
   1.4256988120002452     
   1.4802198905198725     
   1.5264805736430436     