# vtk DataFile Version 2.0
xy_mesh
ASCII
DATASET STRUCTURED_GRID
DIMENSIONS         9         9         1
POINTS        81 float
   0.0000000000000000       -3.1415926535897931        0.0000000000000000     
  0.78539816339744828       -3.1415926535897931        0.0000000000000000     
   1.5707963267948966       -3.1415926535897931        0.0000000000000000     
   2.3561944901923448       -3.1415926535897931        0.0000000000000000     
   3.1415926535897931       -3.1415926535897931        0.0000000000000000     
   3.9269908169872414       -3.1415926535897931        0.0000000000000000     
   4.7123889803846897       -3.1415926535897931        0.0000000000000000     
   5.4977871437821380       -3.1415926535897931        0.0000000000000000     
   6.2831853071795862       -3.1415926535897931        0.0000000000000000     
   0.0000000000000000       -2.9040575511625821        0.0000000000000000     
  0.78539816339744828       -2.9040575511625821        0.0000000000000000     
   1.5707963267948966       -2.9040575511625821        0.0000000000000000     
   2.3561944901923448       -2.9040575511625821        0.0000000000000000     
   3.1415926535897931       -2.9040575511625821        0.0000000000000000     
   3.9269908169872414       -2.9040575511625821        0.0000000000000000     
   4.7123889803846897       -2.9040575511625821        0.0000000000000000     
   5.4977871437821380       -2.9040575511625821        0.0000000000000000     
   6.2831853071795862       -2.9040575511625821        0.0000000000000000     
   0.0000000000000000       -2.5806105374811690        0.0000000000000000     
  0.78539816339744828       -2.5806105374811690        0.0000000000000000     
   1.5707963267948966       -2.5806105374811690        0.0000000000000000     
   2.3561944901923448       -2.5806105374811690        0.0000000000000000     
   3.1415926535897931       -2.5806105374811690        0.0000000000000000     
   3.9269908169872414       -2.5806105374811690        0.0000000000000000     
   4.7123889803846897       -2.5806105374811690        0.0000000000000000     
   5.4977871437821380       -2.5806105374811690        0.0000000000000000     
   6.2831853071795862       -2.5806105374811690        0.0000000000000000     
   0.0000000000000000       -1.9261920446534628        0.0000000000000000     
  0.78539816339744828       -1.9261920446534628        0.0000000000000000     
   1.5707963267948966       -1.9261920446534628        0.0000000000000000     
   2.3561944901923448       -1.9261920446534628        0.0000000000000000     
   3.1415926535897931       -1.9261920446534628        0.0000000000000000     
   3.9269908169872414       -1.9261920446534628        0.0000000000000000     
   4.7123889803846897       -1.9261920446534628        0.0000000000000000     
   5.4977871437821380       -1.9261920446534628        0.0000000000000000     
   6.2831853071795862       -1.9261920446534628        0.0000000000000000     
   0.0000000000000000       -1.3322676295501878E-015   0.0000000000000000     
  0.78539816339744828       -1.3322676295501878E-015   0.0000000000000000     
   1.5707963267948966       -1.3322676295501878E-015   0.0000000000000000     
   2.3561944901923448       -1.3322676295501878E-015   0.0000000000000000     
   3.1415926535897931       -1.3322676295501878E-015   0.0000000000000000     
   3.9269908169872414       -1.3322676295501878E-015   0.0000000000000000     
   4.7123889803846897       -1.3322676295501878E-015   0.0000000000000000     
   5.4977871437821380       -1.3322676295501878E-015   0.0000000000000000     
   6.2831853071795862       -1.3322676295501878E-015   0.0000000000000000     
   0.0000000000000000        1.9261920446534608        0.0000000000000000     
  0.78539816339744828        1.9261920446534608        0.0000000000000000     
   1.5707963267948966        1.9261920446534608        0.0000000000000000     
   2.3561944901923448        1.9261920446534608        0.0000000000000000     
   3.1415926535897931        1.9261920446534608        0.0000000000000000     
   3.9269908169872414        1.9261920446534608        0.0000000000000000     
   4.7123889803846897        1.9261920446534608        0.0000000000000000     
   5.4977871437821380        1.9261920446534608        0.0000000000000000     
   6.2831853071795862        1.9261920446534608        0.0000000000000000     
   0.0000000000000000        2.5806105374811681        0.0000000000000000     
  0.78539816339744828        2.5806105374811681        0.0000000000000000     
   1.5707963267948966        2.5806105374811681        0.0000000000000000     
   2.3561944901923448        2.5806105374811681        0.0000000000000000     
   3.1415926535897931        2.5806105374811681        0.0000000000000000     
   3.9269908169872414        2.5806105374811681        0.0000000000000000     
   4.7123889803846897        2.5806105374811681        0.0000000000000000     
   5.4977871437821380        2.5806105374811681        0.0000000000000000     
   6.2831853071795862        2.5806105374811681        0.0000000000000000     
   0.0000000000000000        2.9040575511625812        0.0000000000000000     
  0.78539816339744828        2.9040575511625812        0.0000000000000000     
   1.5707963267948966        2.9040575511625812        0.0000000000000000     
   2.3561944901923448        2.9040575511625812        0.0000000000000000     
   3.1415926535897931        2.9040575511625812        0.0000000000000000     
   3.9269908169872414        2.9040575511625812        0.0000000000000000     
   4.7123889803846897        2.9040575511625812        0.0000000000000000     
   5.4977871437821380        2.9040575511625812        0.0000000000000000     
   6.2831853071795862        2.9040575511625812        0.0000000000000000     
   0.0000000000000000        3.1415926535897922        0.0000000000000000     
  0.78539816339744828        3.1415926535897922        0.0000000000000000     
   1.5707963267948966        3.1415926535897922        0.0000000000000000     
   2.3561944901923448        3.1415926535897922        0.0000000000000000     
   3.1415926535897931        3.1415926535897922        0.0000000000000000     
   3.9269908169872414        3.1415926535897922        0.0000000000000000     
   4.7123889803846897        3.1415926535897922        0.0000000000000000     
   5.4977871437821380        3.1415926535897922        0.0000000000000000     
   6.2831853071795862        3.1415926535897922        0.0000000000000000     
CELL_DATA        64
SCALARS p float        64
LOOKUP_TABLE default
  0.65113421274751460     
   1.1923303128937115     
   1.1923303128937115     
  0.65113421274751460     
 -0.11423265198266491     
 -0.65542875212886176     
 -0.65542875212886176     
 -0.11423265198266558     
  0.39413636122879386     
  0.93533246137499093     
  0.93533246137499093     
  0.39413636122879397     
 -0.37123050350138559     
 -0.91242660364758232     
 -0.91242660364758255     
 -0.37123050350138637     
   3.8232392871264009E-002
  0.57942849301746091     
  0.57942849301746091     
   3.8232392871264120E-002
 -0.72713447185891544     
  -1.2683305720051121     
  -1.2683305720051123     
 -0.72713447185891611     
 -0.16975089903745572     
  0.37144520110874119     
  0.37144520110874119     
 -0.16975089903745572     
 -0.93511776376763511     
  -1.4763138639138320     
  -1.4763138639138320     
 -0.93511776376763600     
   1.7004846284978139     
   2.2416807286440106     
   2.2416807286440106     
   1.7004846284978141     
  0.93511776376763445     
  0.39392166362143760     
  0.39392166362143749     
  0.93511776376763378     
   1.4925013365890965     
   2.0336974367352934     
   2.0336974367352934     
   1.4925013365890965     
  0.72713447185891689     
  0.18593837171272004     
  0.18593837171271993     
  0.72713447185891611     
   1.1365973682315662     
   1.6777934683777631     
   1.6777934683777631     
   1.1365973682315662     
  0.37123050350138664     
 -0.16996559664481020     
 -0.16996559664481031     
  0.37123050350138592     
  0.87959951671284631     
   1.4207956168590434     
   1.4207956168590434     
  0.87959951671284642     
  0.11423265198266686     
 -0.42696344816352999     
 -0.42696344816353010     
  0.11423265198266613     
CELL_DATA     16384
SCALARS p float     16384
LOOKUP_TABLE default
  0.40015369852720478     
  0.44917703360395994     
  0.49802314520350871     
  0.54657435876459370     
  0.59471371016116237     
  0.64232522747919085     
  0.68929421040318406     
  0.73550750653928065     
  0.78085378400928240     
  0.82522379965889914     
  0.86851066223407658     
  0.91061008989138958     
  0.95142066142213788     
  0.99084406058491936     
   1.0287853129580693     
   1.0651530147413593     
   1.0998595529557593     
   1.1328213165107770     
   1.1639588976308988     
   1.1931972831558761     
   1.2204660352539995     
   1.2456994611130039     
   1.2688367711998079     
   1.2898222257078231     
   1.3086052688390313     
   1.3251406505973291     
   1.3393885357997324     
   1.3513146000428211     
   1.3608901123932338     
   1.3680920046030025     
   1.3729029266829826     
   1.3753112887004968     
   1.3753112887004968     
   1.3729029266829826     
   1.3680920046030025     
   1.3608901123932338     
   1.3513146000428211     
   1.3393885357997324     
   1.3251406505973291     
   1.3086052688390313     
   1.2898222257078231     
   1.2688367711998076     
   1.2456994611130039     
   1.2204660352539998     
   1.1931972831558761     
   1.1639588976308988     
   1.1328213165107772     
   1.0998595529557593     
   1.0651530147413595     
   1.0287853129580691     
  0.99084406058491936     
  0.95142066142213788     
  0.91061008989138958     
  0.86851066223407669     
  0.82522379965889936     
  0.78085378400928240     
  0.73550750653928088     
  0.68929421040318395     
  0.64232522747919107     
  0.59471371016116259     
  0.54657435876459370     
  0.49802314520350888     
  0.44917703360396022     
  0.40015369852720484     
  0.35107124148138041     
  0.30204790640462503     
  0.25320179480507643     
  0.20465058124399155     
  0.15651122984742272     
  0.10889971252939429     
   6.1930729605401358E-002
   1.5717433469304432E-002
  -2.9628844000697152E-002
  -7.3998859650314108E-002
 -0.11728572222549138     
 -0.15938514988280444     
 -0.20019572141355285     
 -0.23961912057633422     
 -0.27756037294948405     
 -0.31392807473277434     
 -0.34863461294717429     
 -0.38159637650219175     
 -0.41273395762231341     
 -0.44197234314729134     
 -0.46924109524541452     
 -0.49447452110441886     
 -0.51761183119122278     
 -0.53859728569923804     
 -0.55738032883044641     
 -0.57391571058874424     
 -0.58816359579114730     
 -0.60008966003423603     
 -0.60966517238464868     
 -0.61686706459441765     
 -0.62167798667439755     
 -0.62408634869191171     
 -0.62408634869191171     
 -0.62167798667439755     
 -0.61686706459441765     
 -0.60966517238464868     
 -0.60008966003423603     
 -0.58816359579114752     
 -0.57391571058874424     
 -0.55738032883044664     
 -0.53859728569923804     
 -0.51761183119122278     
 -0.49447452110441897     
 -0.46924109524541474     
 -0.44197234314729156     
 -0.41273395762231363     
 -0.38159637650219208     
 -0.34863461294717452     
 -0.31392807473277468     
 -0.27756037294948460     
 -0.23961912057633489     
 -0.20019572141355274     
 -0.15938514988280478     
 -0.11728572222549172     
  -7.3998859650314441E-002
  -2.9628844000697874E-002
   1.5717433469304543E-002
   6.1930729605401025E-002
  0.10889971252939395     
  0.15651122984742236     
  0.20465058124399074     
  0.25320179480507649     
  0.30204790640462509     
  0.35107124148138008     
  0.38600537391529399     
  0.43502870899204915     
  0.48387482059159792     
  0.53242603415268297     
  0.58056538554925152     
  0.62817690286728012     
  0.67514588579127333     
  0.72135918192736992     
  0.76670545939737167     
  0.81107547504698829     
  0.85436233762216585     
  0.89646176527947885     
  0.93727233681022715     
  0.97669573597300863     
   1.0146369883461586     
   1.0510046901294485     
   1.0857112283438486     
   1.1186729918988663     
   1.1498105730189880     
   1.1790489585439654     
   1.2063177106420888     
   1.2315511365010932     
   1.2546884465878971     
   1.2756739010959124     
   1.2944569442271205     
   1.3109923259854184     
   1.3252402111878216     
   1.3371662754309104     
   1.3467417877813230     
   1.3539436799910918     
   1.3587546020710719     
   1.3611629640885861     
   1.3611629640885861     
   1.3587546020710719     
   1.3539436799910918     
   1.3467417877813230     
   1.3371662754309104     
   1.3252402111878216     
   1.3109923259854184     
   1.2944569442271205     
   1.2756739010959124     
   1.2546884465878969     
   1.2315511365010932     
   1.2063177106420890     
   1.1790489585439654     
   1.1498105730189880     
   1.1186729918988665     
   1.0857112283438486     
   1.0510046901294487     
   1.0146369883461583     
  0.97669573597300863     
  0.93727233681022715     
  0.89646176527947885     
  0.85436233762216585     
  0.81107547504698863     
  0.76670545939737167     
  0.72135918192737014     
  0.67514588579127310     
  0.62817690286728023     
  0.58056538554925174     
  0.53242603415268297     
  0.48387482059159809     
  0.43502870899204948     
  0.38600537391529405     
  0.33692291686946962     
  0.28789958179271424     
  0.23905347019316564     
  0.19050225663208076     
  0.14236290523551193     
   9.4751387917483498E-002
   4.7782404993490568E-002
   1.5691088573936418E-003
  -4.3777168612607942E-002
  -8.8147184262224898E-002
 -0.13143404683740217     
 -0.17353347449471518     
 -0.21434404602546359     
 -0.25376744518824496     
 -0.29170869756139478     
 -0.32807639934468508     
 -0.36278293755908503     
 -0.39574470111410248     
 -0.42688228223422414     
 -0.45612066775920207     
 -0.48338941985732525     
 -0.50862284571632954     
 -0.53176015580313352     
 -0.55274561031114877     
 -0.57152865344235715     
 -0.58806403520065498     
 -0.60231192040305803     
 -0.61423798464614676     
 -0.62381349699655941     
 -0.63101538920632838     
 -0.63582631128630851     
 -0.63823467330382244     
 -0.63823467330382244     
 -0.63582631128630851     
 -0.63101538920632838     
 -0.62381349699655941     
 -0.61423798464614676     
 -0.60231192040305825     
 -0.58806403520065498     
 -0.57152865344235737     
 -0.55274561031114877     
 -0.53176015580313352     
 -0.50862284571632976     
 -0.48338941985732548     
 -0.45612066775920229     
 -0.42688228223422436     
 -0.39574470111410281     
 -0.36278293755908525     
 -0.32807639934468541     
 -0.29170869756139534     
 -0.25376744518824562     
 -0.21434404602546347     
 -0.17353347449471551     
 -0.13143404683740251     
  -8.8147184262225231E-002
  -4.3777168612608663E-002
   1.5691088573937528E-003
   4.7782404993490235E-002
   9.4751387917483165E-002
  0.14236290523551157     
  0.19050225663207995     
  0.23905347019316570     
  0.28789958179271430     
  0.33692291686946929     
  0.37183783200582876     
  0.42086116708258392     
  0.46970727868213269     
  0.51825849224321774     
  0.56639784363978629     
  0.61400936095781489     
  0.66097834388180798     
  0.70719164001790458     
  0.75253791748790633     
  0.79690793313752306     
  0.84019479571270050     
  0.88229422337001362     
  0.92310479490076180     
  0.96252819406354329     
   1.0004694464366932     
   1.0368371482199834     
   1.0715436864343835     
   1.1045054499894009     
   1.1356430311095227     
   1.1648814166345003     
   1.1921501687326235     
   1.2173835945916278     
   1.2405209046784318     
   1.2615063591864473     
   1.2802894023176554     
   1.2968247840759533     
   1.3110726692783563     
   1.3229987335214450     
   1.3325742458718577     
   1.3397761380816264     
   1.3445870601616068     
   1.3469954221791207     
   1.3469954221791207     
   1.3445870601616068     
   1.3397761380816264     
   1.3325742458718577     
   1.3229987335214450     
   1.3110726692783563     
   1.2968247840759533     
   1.2802894023176554     
   1.2615063591864473     
   1.2405209046784318     
   1.2173835945916280     
   1.1921501687326237     
   1.1648814166345003     
   1.1356430311095229     
   1.1045054499894011     
   1.0715436864343835     
   1.0368371482199836     
   1.0004694464366932     
  0.96252819406354351     
  0.92310479490076203     
  0.88229422337001362     
  0.84019479571270062     
  0.79690793313752328     
  0.75253791748790633     
  0.70719164001790480     
  0.66097834388180787     
  0.61400936095781500     
  0.56639784363978651     
  0.51825849224321774     
  0.46970727868213280     
  0.42086116708258420     
  0.37183783200582882     
  0.32275537496000439     
  0.27373203988324901     
  0.22488592828370038     
  0.17633471472261553     
  0.12819536332604670     
   8.0583846008018212E-002
   3.3614863084025282E-002
  -1.2598433052071645E-002
  -5.7944710522073228E-002
 -0.10231472617169018     
 -0.14560158874686741     
 -0.18770101640418041     
 -0.22851158793492882     
 -0.26793498709771019     
 -0.30587623947086001     
 -0.34224394125415031     
 -0.37695047946855026     
 -0.40991224302356771     
 -0.44104982414368937     
 -0.47028820966866730     
 -0.49755696176679048     
 -0.52279038762579488     
 -0.54592769771259864     
 -0.56691315222061389     
 -0.58569619535182249     
 -0.60223157711012010     
 -0.61647946231252337     
 -0.62840552655561188     
 -0.63798103890602453     
 -0.64518293111579350     
 -0.64999385319577363     
 -0.65240221521328778     
 -0.65240221521328778     
 -0.64999385319577363     
 -0.64518293111579350     
 -0.63798103890602476     
 -0.62840552655561210     
 -0.61647946231252337     
 -0.60223157711012032     
 -0.58569619535182249     
 -0.56691315222061411     
 -0.54592769771259886     
 -0.52279038762579488     
 -0.49755696176679071     
 -0.47028820966866752     
 -0.44104982414368959     
 -0.40991224302356805     
 -0.37695047946855048     
 -0.34224394125415064     
 -0.30587623947086057     
 -0.26793498709771085     
 -0.22851158793492871     
 -0.18770101640418074     
 -0.14560158874686774     
 -0.10231472617169052     
  -5.7944710522073950E-002
  -1.2598433052071534E-002
   3.3614863084024948E-002
   8.0583846008017879E-002
  0.12819536332604631     
  0.17633471472261472     
  0.22488592828370046     
  0.27373203988324907     
  0.32275537496000406     
  0.35763820248104516     
  0.40666153755780032     
  0.45550764915734909     
  0.50405886271843414     
  0.55219821411500269     
  0.59980973143303129     
  0.64677871435702439     
  0.69299201049312098     
  0.73833828796312273     
  0.78270830361273935     
  0.82599516618791691     
  0.86809459384523002     
  0.90890516537597832     
  0.94832856453875980     
  0.98626981691190974     
   1.0226375186951997     
   1.0573440569095998     
   1.0903058204646174     
   1.1214434015847392     
   1.1506817871097166     
   1.1779505392078400     
   1.2031839650668443     
   1.2263212751536483     
   1.2473067296616636     
   1.2660897727928717     
   1.2826251545511695     
   1.2968730397535728     
   1.3087991039966616     
   1.3183746163470742     
   1.3255765085568429     
   1.3303874306368231     
   1.3327957926543372     
   1.3327957926543372     
   1.3303874306368231     
   1.3255765085568429     
   1.3183746163470742     
   1.3087991039966616     
   1.2968730397535728     
   1.2826251545511695     
   1.2660897727928717     
   1.2473067296616636     
   1.2263212751536481     
   1.2031839650668443     
   1.1779505392078402     
   1.1506817871097166     
   1.1214434015847392     
   1.0903058204646177     
   1.0573440569095998     
   1.0226375186951999     
  0.98626981691190951     
  0.94832856453875980     
  0.90890516537597832     
  0.86809459384523002     
  0.82599516618791702     
  0.78270830361273980     
  0.73833828796312284     
  0.69299201049312120     
  0.64677871435702428     
  0.59980973143303129     
  0.55219821411500292     
  0.50405886271843414     
  0.45550764915734920     
  0.40666153755780060     
  0.35763820248104522     
  0.30855574543522080     
  0.25953241035846542     
  0.21068629875891678     
  0.16213508519783190     
  0.11399573380126310     
   6.6384216483234615E-002
   1.9415233559241685E-002
  -2.6798062576855242E-002
  -7.2144340046856825E-002
 -0.11651435569647378     
 -0.15980121827165100     
 -0.20190064592896401     
 -0.24271121745971241     
 -0.28213461662249378     
 -0.32007586899564361     
 -0.35644357077893390     
 -0.39115010899333386     
 -0.42411187254835131     
 -0.45524945366847297     
 -0.48448783919345090     
 -0.51175659129157403     
 -0.53699001715057837     
 -0.56012732723738234     
 -0.58111278174539760     
 -0.59989582487660598     
 -0.61643120663490381     
 -0.63067909183730686     
 -0.64260515608039559     
 -0.65218066843080824     
 -0.65938256064057721     
 -0.66419348272055734     
 -0.66660184473807127     
 -0.66660184473807127     
 -0.66419348272055734     
 -0.65938256064057721     
 -0.65218066843080824     
 -0.64260515608039559     
 -0.63067909183730708     
 -0.61643120663490381     
 -0.59989582487660620     
 -0.58111278174539760     
 -0.56012732723738234     
 -0.53699001715057859     
 -0.51175659129157425     
 -0.48448783919345112     
 -0.45524945366847319     
 -0.42411187254835164     
 -0.39115010899333408     
 -0.35644357077893424     
 -0.32007586899564416     
 -0.28213461662249445     
 -0.24271121745971230     
 -0.20190064592896434     
 -0.15980121827165134     
 -0.11651435569647411     
  -7.2144340046857547E-002
  -2.6798062576855131E-002
   1.9415233559241352E-002
   6.6384216483234282E-002
  0.11399573380126271     
  0.16213508519783110     
  0.21068629875891684     
  0.25953241035846547     
  0.30855574543522046     
  0.34339352673865614     
  0.39241686181541130     
  0.44126297341496007     
  0.48981418697604506     
  0.53795353837261373     
  0.58556505569064221     
  0.63253403861463542     
  0.67874733475073201     
  0.72409361222073376     
  0.76846362787035039     
  0.81175049044552794     
  0.85384991810284094     
  0.89466048963358924     
  0.93408388879637072     
  0.97202514116952066     
   1.0083928429528106     
   1.0430993811672107     
   1.0760611447222284     
   1.1071987258423501     
   1.1364371113673275     
   1.1637058634654509     
   1.1889392893244553     
   1.2120765994112592     
   1.2330620539192745     
   1.2518450970504826     
   1.2683804788087805     
   1.2826283640111837     
   1.2945544282542725     
   1.3041299406046851     
   1.3113318328144539     
   1.3161427548944340     
   1.3185511169119482     
   1.3185511169119482     
   1.3161427548944340     
   1.3113318328144539     
   1.3041299406046851     
   1.2945544282542725     
   1.2826283640111837     
   1.2683804788087805     
   1.2518450970504826     
   1.2330620539192745     
   1.2120765994112590     
   1.1889392893244553     
   1.1637058634654511     
   1.1364371113673275     
   1.1071987258423501     
   1.0760611447222286     
   1.0430993811672107     
   1.0083928429528108     
  0.97202514116952043     
  0.93408388879637072     
  0.89466048963358924     
  0.85384991810284094     
  0.81175049044552794     
  0.76846362787035072     
  0.72409361222073376     
  0.67874733475073223     
  0.63253403861463520     
  0.58556505569064232     
  0.53795353837261395     
  0.48981418697604506     
  0.44126297341496024     
  0.39241686181541158     
  0.34339352673865620     
  0.29431106969283177     
  0.24528773461607636     
  0.19644162301652776     
  0.14789040945544291     
   9.9751058058874076E-002
   5.2139540740845591E-002
   5.1705578168526611E-003
  -4.1042738319244265E-002
  -8.6389015789245849E-002
 -0.13075903143886275     
 -0.17404589401404008     
 -0.21614532167135309     
 -0.25695589320210149     
 -0.29637929236488286     
 -0.33432054473803269     
 -0.37068824652132298     
 -0.40539478473572294     
 -0.43835654829074039     
 -0.46949412941086205     
 -0.49873251493583998     
 -0.52600126703396310     
 -0.55123469289296745     
 -0.57437200297977142     
 -0.59535745748778668     
 -0.61414050061899506     
 -0.63067588237729266     
 -0.64492376757969594     
 -0.65684983182278445     
 -0.66642534417319710     
 -0.67362723638296607     
 -0.67843815846294619     
 -0.68084652048046035     
 -0.68084652048046035     
 -0.67843815846294619     
 -0.67362723638296607     
 -0.66642534417319732     
 -0.65684983182278467     
 -0.64492376757969594     
 -0.63067588237729288     
 -0.61414050061899528     
 -0.59535745748778668     
 -0.57437200297977142     
 -0.55123469289296767     
 -0.52600126703396333     
 -0.49873251493584020     
 -0.46949412941086227     
 -0.43835654829074072     
 -0.40539478473572316     
 -0.37068824652132332     
 -0.33432054473803324     
 -0.29637929236488353     
 -0.25695589320210138     
 -0.21614532167135342     
 -0.17404589401404041     
 -0.13075903143886308     
  -8.6389015789246570E-002
  -4.1042738319244154E-002
   5.1705578168523281E-003
   5.2139540740845258E-002
   9.9751058058873687E-002
  0.14789040945544207     
  0.19644162301652784     
  0.24528773461607645     
  0.29431106969283138     
  0.32909072237451920     
  0.37811405745127435     
  0.42696016905082312     
  0.47551138261190812     
  0.52365073400847673     
  0.57126225132650532     
  0.61823123425049842     
  0.66444453038659501     
  0.70979080785659676     
  0.75416082350621338     
  0.79744768608139094     
  0.83954711373870405     
  0.88035768526945224     
  0.91978108443223383     
  0.95772233680538377     
  0.99409003858867373     
   1.0287965768030738     
   1.0617583403580915     
   1.0928959214782132     
   1.1221343070031906     
   1.1494030591013140     
   1.1746364849603184     
   1.1977737950471223     
   1.2187592495551376     
   1.2375422926863457     
   1.2540776744446436     
   1.2683255596470469     
   1.2802516238901356     
   1.2898271362405482     
   1.2970290284503170     
   1.3018399505302971     
   1.3042483125478113     
   1.3042483125478113     
   1.3018399505302971     
   1.2970290284503170     
   1.2898271362405482     
   1.2802516238901356     
   1.2683255596470469     
   1.2540776744446436     
   1.2375422926863457     
   1.2187592495551376     
   1.1977737950471221     
   1.1746364849603184     
   1.1494030591013142     
   1.1221343070031906     
   1.0928959214782132     
   1.0617583403580917     
   1.0287965768030738     
  0.99409003858867395     
  0.95772233680538355     
  0.91978108443223383     
  0.88035768526945235     
  0.83954711373870405     
  0.79744768608139105     
  0.75416082350621383     
  0.70979080785659687     
  0.66444453038659523     
  0.61823123425049831     
  0.57126225132650532     
  0.52365073400847695     
  0.47551138261190812     
  0.42696016905082324     
  0.37811405745127463     
  0.32909072237451925     
  0.28000826532869483     
  0.23098493025193942     
  0.18213881865239082     
  0.13358760509130596     
   8.5448253694737131E-002
   3.7836736376708646E-002
  -9.1322465472842840E-003
  -5.5345542683381210E-002
 -0.10069182015338279     
 -0.14506183580299975     
 -0.18834869837817697     
 -0.23044812603548998     
 -0.27125869756623838     
 -0.31068209672901975     
 -0.34862334910216958     
 -0.38499105088545987     
 -0.41969758909985982     
 -0.45265935265487728     
 -0.48379693377499894     
 -0.51303531929997681     
 -0.54030407139809999     
 -0.56553749725710434     
 -0.58867480734390831     
 -0.60966026185192357     
 -0.62844330498313195     
 -0.64497868674142977     
 -0.65922657194383283     
 -0.67115263618692156     
 -0.68072814853733421     
 -0.68793004074710318     
 -0.69274096282708331     
 -0.69514932484459724     
 -0.69514932484459724     
 -0.69274096282708331     
 -0.68793004074710318     
 -0.68072814853733421     
 -0.67115263618692156     
 -0.65922657194383305     
 -0.64497868674142977     
 -0.62844330498313217     
 -0.60966026185192357     
 -0.58867480734390831     
 -0.56553749725710456     
 -0.54030407139810022     
 -0.51303531929997703     
 -0.48379693377499916     
 -0.45265935265487761     
 -0.41969758909986005     
 -0.38499105088546021     
 -0.34862334910217013     
 -0.31068209672902042     
 -0.27125869756623827     
 -0.23044812603549031     
 -0.18834869837817730     
 -0.14506183580300008     
 -0.10069182015338352     
  -5.5345542683381099E-002
  -9.1322465472846170E-003
   3.7836736376708313E-002
   8.5448253694736742E-002
  0.13358760509130513     
  0.18213881865239090     
  0.23098493025193950     
  0.28000826532869449     
  0.31471654747929567     
  0.36373988255605078     
  0.41258599415559954     
  0.46113720771668459     
  0.50927655911325309     
  0.55688807643128180     
  0.60385705935527489     
  0.65007035549137149     
  0.69541663296137324     
  0.73978664861098986     
  0.78307351118616741     
  0.82517293884348053     
  0.86598351037422872     
  0.90540690953701009     
  0.94334816191016002     
  0.97971586369345021     
   1.0144224019078503     
   1.0473841654628677     
   1.0785217465829895     
   1.1077601321079671     
   1.1350288842060903     
   1.1602623100650946     
   1.1833996201518986     
   1.2043850746599141     
   1.2231681177911222     
   1.2397034995494201     
   1.2539513847518231     
   1.2658774489949118     
   1.2754529613453245     
   1.2826548535550932     
   1.2874657756350736     
   1.2898741376525875     