# vtk DataFile Version 2.0
xy_mesh
ASCII
DATASET STRUCTURED_GRID
DIMENSIONS         5         5         1
POINTS        25 float
   0.0000000000000000       -1.0000000000000000        0.0000000000000000     
   1.5000000000000000       -1.0000000000000000        0.0000000000000000     
   3.0000000000000000       -1.0000000000000000        0.0000000000000000     
   4.5000000000000000       -1.0000000000000000        0.0000000000000000     
   6.0000000000000000       -1.0000000000000000        0.0000000000000000     
   0.0000000000000000      -0.59809326195229373        0.0000000000000000     
   1.5000000000000000      -0.59809326195229373        0.0000000000000000     
   3.0000000000000000      -0.59809326195229373        0.0000000000000000     
   4.5000000000000000      -0.59809326195229373        0.0000000000000000     
   6.0000000000000000      -0.59809326195229373        0.0000000000000000     
   0.0000000000000000        0.0000000000000000        0.0000000000000000     
   1.5000000000000000        0.0000000000000000        0.0000000000000000     
   3.0000000000000000        0.0000000000000000        0.0000000000000000     
   4.5000000000000000        0.0000000000000000        0.0000000000000000     
   6.0000000000000000        0.0000000000000000        0.0000000000000000     
   0.0000000000000000       0.59809326195229384        0.0000000000000000     
   1.5000000000000000       0.59809326195229384        0.0000000000000000     
   3.0000000000000000       0.59809326195229384        0.0000000000000000     
   4.5000000000000000       0.59809326195229384        0.0000000000000000     
   6.0000000000000000       0.59809326195229384        0.0000000000000000     
   0.0000000000000000        1.0000000000000004        0.0000000000000000     
   1.5000000000000000        1.0000000000000004        0.0000000000000000     
   3.0000000000000000        1.0000000000000004        0.0000000000000000     
   4.5000000000000000        1.0000000000000004        0.0000000000000000     
   6.0000000000000000        1.0000000000000004        0.0000000000000000     
CELL_DATA        16
SCALARS u float        16
LOOKUP_TABLE default
  0.58124763469016627     
  0.18310954983075906     
  0.23669778299283228     
  0.47069288150940003     
   1.9051735441307072     
   1.6243016754387942     
   1.3326661297933275     
   1.8877201674552100     
   1.0884097117621336     
   1.2676664104951996     
   1.2931877330109469     
  0.93647224893577929     
  0.54923523952208519     
  0.52497968385407379     
  0.86858109200619005     
  0.71880183549658239     
SCALARS v float        16
LOOKUP_TABLE default
   0.0000000000000000     
   0.0000000000000000     
   0.0000000000000000     
   0.0000000000000000     
 -0.54210826340351226     
  0.30912821219516207     
 -0.52553533947493924     
  0.50736471686042350     
   4.1800617873292187E-002
  0.45237795183403795     
 -0.47715963330686728     
 -0.18055476515198249     
 -0.31465201764991929     
 -0.19887191766030882     
  0.18323707667102185     
 -0.45803678975527196     
SCALARS w float        16
LOOKUP_TABLE default
  0.12720951506843486     
  0.37014454977307559     
  -9.1895151392467594E-002
  0.32886634380618796     
  0.35876448686027856     
 -0.56921749164027102     
 -0.30879160705756464     
  0.24480764676635325     
   8.1330261468641973E-002
  0.46156285759742510     
 -0.39758533470618962     
 -0.19857508666913049     
  0.38880681804871503     
 -0.15418644940654608     
  0.33381029742355467     
 -0.27950423617221593     
SCALARS p float        16
LOOKUP_TABLE default
   0.0000000000000000     
   0.0000000000000000     
   0.0000000000000000     
   0.0000000000000000     
   0.0000000000000000     
   0.0000000000000000     
   0.0000000000000000     
   0.0000000000000000     
   0.0000000000000000     
   0.0000000000000000     
   0.0000000000000000     
   0.0000000000000000     
   0.0000000000000000     
   0.0000000000000000     
   0.0000000000000000     
   0.0000000000000000     
