# vtk DataFile Version 2.0
zx_mesh
ASCII
DATASET STRUCTURED_GRID
DIMENSIONS         9         1         9
POINTS        81 float
   0.0000000000000000       -3.1415926535897931        0.0000000000000000     
  0.78539816339744828       -3.1415926535897931        0.0000000000000000     
   1.5707963267948966       -3.1415926535897931        0.0000000000000000     
   2.3561944901923448       -3.1415926535897931        0.0000000000000000     
   3.1415926535897931       -3.1415926535897931        0.0000000000000000     
   3.9269908169872414       -3.1415926535897931        0.0000000000000000     
   4.7123889803846897       -3.1415926535897931        0.0000000000000000     
   5.4977871437821380       -3.1415926535897931        0.0000000000000000     
   6.2831853071795862       -3.1415926535897931        0.0000000000000000     
   0.0000000000000000       -3.1415926535897931       0.78539816339744828     
  0.78539816339744828       -3.1415926535897931       0.78539816339744828     
   1.5707963267948966       -3.1415926535897931       0.78539816339744828     
   2.3561944901923448       -3.1415926535897931       0.78539816339744828     
   3.1415926535897931       -3.1415926535897931       0.78539816339744828     
   3.9269908169872414       -3.1415926535897931       0.78539816339744828     
   4.7123889803846897       -3.1415926535897931       0.78539816339744828     
   5.4977871437821380       -3.1415926535897931       0.78539816339744828     
   6.2831853071795862       -3.1415926535897931       0.78539816339744828     
   0.0000000000000000       -3.1415926535897931        1.5707963267948966     
  0.78539816339744828       -3.1415926535897931        1.5707963267948966     
   1.5707963267948966       -3.1415926535897931        1.5707963267948966     
   2.3561944901923448       -3.1415926535897931        1.5707963267948966     
   3.1415926535897931       -3.1415926535897931        1.5707963267948966     
   3.9269908169872414       -3.1415926535897931        1.5707963267948966     
   4.7123889803846897       -3.1415926535897931        1.5707963267948966     
   5.4977871437821380       -3.1415926535897931        1.5707963267948966     
   6.2831853071795862       -3.1415926535897931        1.5707963267948966     
   0.0000000000000000       -3.1415926535897931        2.3561944901923448     
  0.78539816339744828       -3.1415926535897931        2.3561944901923448     
   1.5707963267948966       -3.1415926535897931        2.3561944901923448     
   2.3561944901923448       -3.1415926535897931        2.3561944901923448     
   3.1415926535897931       -3.1415926535897931        2.3561944901923448     
   3.9269908169872414       -3.1415926535897931        2.3561944901923448     
   4.7123889803846897       -3.1415926535897931        2.3561944901923448     
   5.4977871437821380       -3.1415926535897931        2.3561944901923448     
   6.2831853071795862       -3.1415926535897931        2.3561944901923448     
   0.0000000000000000       -3.1415926535897931        3.1415926535897931     
  0.78539816339744828       -3.1415926535897931        3.1415926535897931     
   1.5707963267948966       -3.1415926535897931        3.1415926535897931     
   2.3561944901923448       -3.1415926535897931        3.1415926535897931     
   3.1415926535897931       -3.1415926535897931        3.1415926535897931     
   3.9269908169872414       -3.1415926535897931        3.1415926535897931     
   4.7123889803846897       -3.1415926535897931        3.1415926535897931     
   5.4977871437821380       -3.1415926535897931        3.1415926535897931     
   6.2831853071795862       -3.1415926535897931        3.1415926535897931     
   0.0000000000000000       -3.1415926535897931        3.9269908169872414     
  0.78539816339744828       -3.1415926535897931        3.9269908169872414     
   1.5707963267948966       -3.1415926535897931        3.9269908169872414     
   2.3561944901923448       -3.1415926535897931        3.9269908169872414     
   3.1415926535897931       -3.1415926535897931        3.9269908169872414     
   3.9269908169872414       -3.1415926535897931        3.9269908169872414     
   4.7123889803846897       -3.1415926535897931        3.9269908169872414     
   5.4977871437821380       -3.1415926535897931        3.9269908169872414     
   6.2831853071795862       -3.1415926535897931        3.9269908169872414     
   0.0000000000000000       -3.1415926535897931        4.7123889803846897     
  0.78539816339744828       -3.1415926535897931        4.7123889803846897     
   1.5707963267948966       -3.1415926535897931        4.7123889803846897     
   2.3561944901923448       -3.1415926535897931        4.7123889803846897     
   3.1415926535897931       -3.1415926535897931        4.7123889803846897     
   3.9269908169872414       -3.1415926535897931        4.7123889803846897     
   4.7123889803846897       -3.1415926535897931        4.7123889803846897     
   5.4977871437821380       -3.1415926535897931        4.7123889803846897     
   6.2831853071795862       -3.1415926535897931        4.7123889803846897     
   0.0000000000000000       -3.1415926535897931        5.4977871437821380     
  0.78539816339744828       -3.1415926535897931        5.4977871437821380     
   1.5707963267948966       -3.1415926535897931        5.4977871437821380     
   2.3561944901923448       -3.1415926535897931        5.4977871437821380     
   3.1415926535897931       -3.1415926535897931        5.4977871437821380     
   3.9269908169872414       -3.1415926535897931        5.4977871437821380     
   4.7123889803846897       -3.1415926535897931        5.4977871437821380     
   5.4977871437821380       -3.1415926535897931        5.4977871437821380     
   6.2831853071795862       -3.1415926535897931        5.4977871437821380     
   0.0000000000000000       -3.1415926535897931        6.2831853071795862     
  0.78539816339744828       -3.1415926535897931        6.2831853071795862     
   1.5707963267948966       -3.1415926535897931        6.2831853071795862     
   2.3561944901923448       -3.1415926535897931        6.2831853071795862     
   3.1415926535897931       -3.1415926535897931        6.2831853071795862     
   3.9269908169872414       -3.1415926535897931        6.2831853071795862     
   4.7123889803846897       -3.1415926535897931        6.2831853071795862     
   5.4977871437821380       -3.1415926535897931        6.2831853071795862     
   6.2831853071795862       -3.1415926535897931        6.2831853071795862     
CELL_DATA        64
SCALARS p float        64
LOOKUP_TABLE default
  0.65113421274751460     
   1.1923303128937115     
   1.1923303128937115     
  0.65113421274751460     
 -0.11423265198266491     
 -0.65542875212886176     
 -0.65542875212886176     
 -0.11423265198266558     
   1.1923303128937115     
   1.7335264130399084     
   1.7335264130399084     
   1.1923303128937115     
  0.42696344816353204     
 -0.11423265198266486     
 -0.11423265198266486     
  0.42696344816353138     
   1.1923303128937115     
   1.7335264130399084     
   1.7335264130399084     
   1.1923303128937115     
  0.42696344816353204     
 -0.11423265198266486     
 -0.11423265198266486     
  0.42696344816353138     
  0.65113421274751460     
   1.1923303128937117     
   1.1923303128937117     
  0.65113421274751482     
 -0.11423265198266480     
 -0.65542875212886176     
 -0.65542875212886176     
 -0.11423265198266547     
 -0.11423265198266491     
  0.42696344816353210     
  0.42696344816353210     
 -0.11423265198266480     
 -0.87959951671284431     
  -1.4207956168590412     
  -1.4207956168590412     
 -0.87959951671284498     
 -0.65542875212886176     
 -0.11423265198266475     
 -0.11423265198266475     
 -0.65542875212886165     
  -1.4207956168590412     
  -1.9619917170052381     
  -1.9619917170052381     
  -1.4207956168590419     
 -0.65542875212886187     
 -0.11423265198266486     
 -0.11423265198266486     
 -0.65542875212886176     
  -1.4207956168590412     
  -1.9619917170052381     
  -1.9619917170052381     
  -1.4207956168590421     
 -0.11423265198266563     
  0.42696344816353138     
  0.42696344816353138     
 -0.11423265198266552     
 -0.87959951671284509     
  -1.4207956168590421     
  -1.4207956168590421     
 -0.87959951671284575     
CELL_DATA      1024
SCALARS p float      1024
LOOKUP_TABLE default
  0.40015369852720478     
  0.44917703360395994     
  0.49802314520350871     
  0.54657435876459370     
  0.59471371016116237     
  0.64232522747919085     
  0.68929421040318406     
  0.73550750653928065     
  0.78085378400928240     
  0.82522379965889914     
  0.86851066223407658     
  0.91061008989138958     
  0.95142066142213788     
  0.99084406058491936     
   1.0287853129580693     
   1.0651530147413593     
   1.0998595529557593     
   1.1328213165107770     
   1.1639588976308988     
   1.1931972831558761     
   1.2204660352539995     
   1.2456994611130039     
   1.2688367711998079     
   1.2898222257078231     
   1.3086052688390313     
   1.3251406505973291     
   1.3393885357997324     
   1.3513146000428211     
   1.3608901123932338     
   1.3680920046030025     
   1.3729029266829826     
   1.3753112887004968     
   1.3753112887004968     
   1.3729029266829826     
   1.3680920046030025     
   1.3608901123932338     
   1.3513146000428211     
   1.3393885357997324     
   1.3251406505973291     
   1.3086052688390313     
   1.2898222257078231     
   1.2688367711998076     
   1.2456994611130039     
   1.2204660352539998     
   1.1931972831558761     
   1.1639588976308988     
   1.1328213165107772     
   1.0998595529557593     
   1.0651530147413595     
   1.0287853129580691     
  0.99084406058491936     
  0.95142066142213788     
  0.91061008989138958     
  0.86851066223407669     
  0.82522379965889936     
  0.78085378400928240     
  0.73550750653928088     
  0.68929421040318395     
  0.64232522747919107     
  0.59471371016116259     
  0.54657435876459370     
  0.49802314520350888     
  0.44917703360396022     
  0.40015369852720484     
  0.35107124148138041     
  0.30204790640462503     
  0.25320179480507643     
  0.20465058124399155     
  0.15651122984742272     
  0.10889971252939429     
   6.1930729605401358E-002
   1.5717433469304432E-002
  -2.9628844000697152E-002
  -7.3998859650314108E-002
 -0.11728572222549138     
 -0.15938514988280444     
 -0.20019572141355285     
 -0.23961912057633422     
 -0.27756037294948405     
 -0.31392807473277434     
 -0.34863461294717429     
 -0.38159637650219175     
 -0.41273395762231341     
 -0.44197234314729134     
 -0.46924109524541452     
 -0.49447452110441886     
 -0.51761183119122278     
 -0.53859728569923804     
 -0.55738032883044641     
 -0.57391571058874424     
 -0.58816359579114730     
 -0.60008966003423603     
 -0.60966517238464868     
 -0.61686706459441765     
 -0.62167798667439755     
 -0.62408634869191171     
 -0.62408634869191171     
 -0.62167798667439755     
 -0.61686706459441765     
 -0.60966517238464868     
 -0.60008966003423603     
 -0.58816359579114752     
 -0.57391571058874424     
 -0.55738032883044664     
 -0.53859728569923804     
 -0.51761183119122278     
 -0.49447452110441897     
 -0.46924109524541474     
 -0.44197234314729156     
 -0.41273395762231363     
 -0.38159637650219208     
 -0.34863461294717452     
 -0.31392807473277468     
 -0.27756037294948460     
 -0.23961912057633489     
 -0.20019572141355274     
 -0.15938514988280478     
 -0.11728572222549172     
  -7.3998859650314441E-002
  -2.9628844000697874E-002
   1.5717433469304543E-002
   6.1930729605401025E-002
  0.10889971252939395     
  0.15651122984742236     
  0.20465058124399074     
  0.25320179480507649     
  0.30204790640462509     
  0.35107124148138008     
  0.94134979867340174     
  0.99037313375015690     
   1.0392192453497056     
   1.0877704589107906     
   1.1359098103073593     
   1.1835213276253880     
   1.2304903105493810     
   1.2767036066854776     
   1.3220498841554793     
   1.3664198998050960     
   1.4097067623802735     
   1.4518061900375865     
   1.4926167615683348     
   1.5320401607311163     
   1.5699814131042662     
   1.6063491148875562     
   1.6410556531019562     
   1.6740174166569739     
   1.7051549977770957     
   1.7343933833020730     
   1.7616621354001964     
   1.7868955612592008     
   1.8100328713460048     
   1.8310183258540200     
   1.8498013689852284     
   1.8663367507435260     
   1.8805846359459293     
   1.8925107001890180     
   1.9020862125394307     
   1.9092881047491994     
   1.9140990268291795     
   1.9165073888466937     
   1.9165073888466937     
   1.9140990268291795     
   1.9092881047491994     
   1.9020862125394307     
   1.8925107001890180     
   1.8805846359459293     
   1.8663367507435260     
   1.8498013689852284     
   1.8310183258540200     
   1.8100328713460048     
   1.7868955612592008     
   1.7616621354001967     
   1.7343933833020730     
   1.7051549977770959     
   1.6740174166569741     
   1.6410556531019562     
   1.6063491148875566     
   1.5699814131042662     
   1.5320401607311163     
   1.4926167615683350     
   1.4518061900375865     
   1.4097067623802737     
   1.3664198998050963     
   1.3220498841554793     
   1.2767036066854778     
   1.2304903105493810     
   1.1835213276253880     
   1.1359098103073595     
   1.0877704589107906     
   1.0392192453497058     
  0.99037313375015723     
  0.94134979867340185     
  0.89226734162757737     
  0.84324400655082199     
  0.79439789495127333     
  0.74584668139018850     
  0.69770732999361962     
  0.65009581267559124     
  0.60312682975159837     
  0.55691353361550133     
  0.51156725614549980     
  0.46719724049588285     
  0.42391037792070557     
  0.38181095026339251     
  0.34100037873264410     
  0.30157697956986274     
  0.26363572719671291     
  0.22726802541342261     
  0.19256148719902266     
  0.15959972364400521     
  0.12846214252388355     
   9.9223756998905621E-002
   7.1955004900782438E-002
   4.6721579041778094E-002
   2.3584268954974230E-002
   2.5988144469589747E-003
  -1.6184228684249513E-002
  -3.2719610442547231E-002
  -4.6967495644950397E-002
  -5.8893559888039015E-002
  -6.8469072238451667E-002
  -7.5670964448220635E-002
  -8.0481886528200652E-002
  -8.2890248545714806E-002
  -8.2890248545714806E-002
  -8.0481886528200652E-002
  -7.5670964448220635E-002
  -6.8469072238451778E-002
  -5.8893559888039126E-002
  -4.6967495644950508E-002
  -3.2719610442547342E-002
  -1.6184228684249624E-002
   2.5988144469588637E-003
   2.3584268954974119E-002
   4.6721579041777983E-002
   7.1955004900782216E-002
   9.9223756998905399E-002
  0.12846214252388333     
  0.15959972364400488     
  0.19256148719902244     
  0.22726802541342228     
  0.26363572719671236     
  0.30157697956986207     
  0.34100037873264422     
  0.38181095026339218     
  0.42391037792070524     
  0.46719724049588252     
  0.51156725614549914     
  0.55691353361550155     
  0.60312682975159793     
  0.65009581267559091     
  0.69770732999361929     
  0.74584668139018773     
  0.79439789495127344     
  0.84324400655082210     
  0.89226734162757704     
  0.94134979867340174     
  0.99037313375015690     
   1.0392192453497056     
   1.0877704589107906     
   1.1359098103073593     
   1.1835213276253880     
   1.2304903105493810     
   1.2767036066854776     
   1.3220498841554793     
   1.3664198998050960     
   1.4097067623802735     
   1.4518061900375865     
   1.4926167615683348     
   1.5320401607311163     
   1.5699814131042662     
   1.6063491148875562     
   1.6410556531019562     
   1.6740174166569739     
   1.7051549977770957     
   1.7343933833020730     
   1.7616621354001964     
   1.7868955612592008     
   1.8100328713460048     
   1.8310183258540200     
   1.8498013689852284     
   1.8663367507435260     
   1.8805846359459293     
   1.8925107001890180     
   1.9020862125394307     
   1.9092881047491994     
   1.9140990268291795     
   1.9165073888466937     
   1.9165073888466937     
   1.9140990268291795     
   1.9092881047491994     
   1.9020862125394307     
   1.8925107001890180     
   1.8805846359459293     
   1.8663367507435260     
   1.8498013689852284     
   1.8310183258540200     
   1.8100328713460048     
   1.7868955612592008     
   1.7616621354001967     
   1.7343933833020730     
   1.7051549977770959     
   1.6740174166569741     
   1.6410556531019562     
   1.6063491148875566     
   1.5699814131042662     
   1.5320401607311163     
   1.4926167615683350     
   1.4518061900375865     
   1.4097067623802737     
   1.3664198998050963     
   1.3220498841554793     
   1.2767036066854778     
   1.2304903105493810     
   1.1835213276253880     
   1.1359098103073595     
   1.0877704589107906     
   1.0392192453497058     
  0.99037313375015723     
  0.94134979867340185     
  0.89226734162757737     
  0.84324400655082199     
  0.79439789495127333     
  0.74584668139018850     
  0.69770732999361962     
  0.65009581267559124     
  0.60312682975159837     
  0.55691353361550133     
  0.51156725614549980     
  0.46719724049588285     
  0.42391037792070557     
  0.38181095026339251     
  0.34100037873264410     
  0.30157697956986274     
  0.26363572719671291     
  0.22726802541342261     
  0.19256148719902266     
  0.15959972364400521     
  0.12846214252388355     
   9.9223756998905621E-002
   7.1955004900782438E-002
   4.6721579041778094E-002
   2.3584268954974230E-002
   2.5988144469589747E-003
  -1.6184228684249513E-002
  -3.2719610442547231E-002
  -4.6967495644950397E-002
  -5.8893559888039015E-002
  -6.8469072238451667E-002
  -7.5670964448220635E-002
  -8.0481886528200652E-002
  -8.2890248545714806E-002
  -8.2890248545714806E-002
  -8.0481886528200652E-002
  -7.5670964448220635E-002
  -6.8469072238451778E-002
  -5.8893559888039126E-002
  -4.6967495644950508E-002
  -3.2719610442547342E-002
  -1.6184228684249624E-002
   2.5988144469588637E-003
   2.3584268954974119E-002
   4.6721579041777983E-002
   7.1955004900782216E-002
   9.9223756998905399E-002
  0.12846214252388333     
  0.15959972364400488     
  0.19256148719902244     
  0.22726802541342228     
  0.26363572719671236     
  0.30157697956986207     
  0.34100037873264422     
  0.38181095026339218     
  0.42391037792070524     
  0.46719724049588252     
  0.51156725614549914     
  0.55691353361550155     
  0.60312682975159793     
  0.65009581267559091     
  0.69770732999361929     
  0.74584668139018773     
  0.79439789495127344     
  0.84324400655082210     
  0.89226734162757704     
  0.40015369852720489     
  0.44917703360396005     
  0.49802314520350882     
  0.54657435876459382     
  0.59471371016116237     
  0.64232522747919107     
  0.68929421040318417     
  0.73550750653928076     
  0.78085378400928251     
  0.82522379965889914     
  0.86851066223407669     
  0.91061008989138981     
  0.95142066142213788     
  0.99084406058491936     
   1.0287853129580693     
   1.0651530147413595     
   1.0998595529557595     
   1.1328213165107770     
   1.1639588976308988     
   1.1931972831558764     
   1.2204660352539995     
   1.2456994611130039     
   1.2688367711998079     
   1.2898222257078233     
   1.3086052688390315     
   1.3251406505973293     
   1.3393885357997324     
   1.3513146000428211     
   1.3608901123932338     
   1.3680920046030025     
   1.3729029266829829     
   1.3753112887004968     
   1.3753112887004968     
   1.3729029266829829     
   1.3680920046030025     
   1.3608901123932338     
   1.3513146000428211     
   1.3393885357997324     
   1.3251406505973293     
   1.3086052688390315     
   1.2898222257078233     
   1.2688367711998079     
   1.2456994611130041     
   1.2204660352539998     
   1.1931972831558764     
   1.1639588976308990     
   1.1328213165107772     
   1.0998595529557595     
   1.0651530147413597     
   1.0287853129580693     
  0.99084406058491958     
  0.95142066142213810     
  0.91061008989138981     
  0.86851066223407680     
  0.82522379965889958     
  0.78085378400928263     
  0.73550750653928099     
  0.68929421040318406     
  0.64232522747919107     
  0.59471371016116270     
  0.54657435876459382     
  0.49802314520350899     
  0.44917703360396033     
  0.40015369852720495     
  0.35107124148138052     
  0.30204790640462514     
  0.25320179480507654     
  0.20465058124399166     
  0.15651122984742283     
  0.10889971252939440     
   6.1930729605401469E-002
   1.5717433469304543E-002
  -2.9628844000697041E-002
  -7.3998859650313997E-002
 -0.11728572222549127     
 -0.15938514988280433     
 -0.20019572141355274     
 -0.23961912057633411     
 -0.27756037294948394     
 -0.31392807473277423     
 -0.34863461294717418     
 -0.38159637650219164     
 -0.41273395762231330     
 -0.44197234314729122     
 -0.46924109524541441     
 -0.49447452110441875     
 -0.51761183119122256     
 -0.53859728569923782     
 -0.55738032883044641     
 -0.57391571058874402     
 -0.58816359579114730     
 -0.60008966003423581     
 -0.60966517238464846     
 -0.61686706459441742     
 -0.62167798667439755     
 -0.62408634869191171     
 -0.62408634869191171     
 -0.62167798667439755     
 -0.61686706459441742     
 -0.60966517238464868     
 -0.60008966003423603     
 -0.58816359579114730     
 -0.57391571058874424     
 -0.55738032883044641     
 -0.53859728569923804     
 -0.51761183119122278     
 -0.49447452110441886     
 -0.46924109524541463     
 -0.44197234314729145     
 -0.41273395762231352     
 -0.38159637650219197     
 -0.34863461294717440     
 -0.31392807473277456     
 -0.27756037294948449     
 -0.23961912057633478     
 -0.20019572141355263     
 -0.15938514988280467     
 -0.11728572222549161     
  -7.3998859650314330E-002
  -2.9628844000697763E-002
   1.5717433469304654E-002
   6.1930729605401136E-002
  0.10889971252939407     
  0.15651122984742247     
  0.20465058124399085     
  0.25320179480507660     
  0.30204790640462520     
  0.35107124148138019     
 -0.36521316620297467     
 -0.31618983112621951     
 -0.26734371952667074     
 -0.21879250596558572     
 -0.17065315456901714     
 -0.12304163725098854     
  -7.6072654326995393E-002
  -2.9859358190898799E-002
   1.5486919279102951E-002
   5.9856934928719630E-002
  0.10314379750389713     
  0.14524322516121019     
  0.18605379669195837     
  0.22547719585473985     
  0.26341844822788979     
  0.29978615001117986     
  0.33449268822557993     
  0.36745445178059749     
  0.39859203290071926     
  0.42783041842569675     
  0.45509917052382004     
  0.48033259638282438     
  0.50346990646962841     
  0.52445536097764367     
  0.54323840410885182     
  0.55977378586714965     
  0.57402167106955293     
  0.58594773531264166     
  0.59552324766305431     
  0.60272513987282306     
  0.60753606195280319     
  0.60994442397031734     
  0.60994442397031734     
  0.60753606195280319     
  0.60272513987282306     
  0.59552324766305431     
  0.58594773531264166     
  0.57402167106955293     
  0.55977378586714965     
  0.54323840410885182     
  0.52445536097764367     
  0.50346990646962819     
  0.48033259638282449     
  0.45509917052382026     
  0.42783041842569675     
  0.39859203290071937     
  0.36745445178059771     
  0.33449268822557993     
  0.29978615001118009     
  0.26341844822788968     
  0.22547719585473996     
  0.18605379669195848     
  0.14524322516121019     
  0.10314379750389724     
   5.9856934928719963E-002
   1.5486919279103006E-002
  -2.9859358190898577E-002
  -7.6072654326995504E-002
 -0.12304163725098843     
 -0.17065315456901689     
 -0.21879250596558572     
 -0.26734371952667058     
 -0.31618983112621923     
 -0.36521316620297462     
 -0.41429562324879904     
 -0.46331895832555442     
 -0.51216506992510302     
 -0.56071628348618785     
 -0.60885563488275674     
 -0.65646715220078522     
 -0.70343613512477809     
 -0.74964943126087502     
 -0.79499570873087655     
 -0.83936572438049351     
 -0.88265258695567084     
 -0.92475201461298395     
 -0.96556258614373225     
  -1.0049859853065137     
  -1.0429272376796634     
  -1.0792949394629539     
  -1.1140014776773537     
  -1.1469632412323711     
  -1.1781008223524929     
  -1.2073392078774707     
  -1.2346079599755939     
  -1.2598413858345983     
  -1.2829786959214022     
  -1.3039641504294175     
  -1.3227471935606259     
  -1.3392825753189237     
  -1.3535304605213268     
  -1.3654565247644155     
  -1.3750320371148281     
  -1.3822339293245971     
  -1.3870448514045770     
  -1.3894532134220912     
  -1.3894532134220912     
  -1.3870448514045770     
  -1.3822339293245971     
  -1.3750320371148281     
  -1.3654565247644155     
  -1.3535304605213270     
  -1.3392825753189237     
  -1.3227471935606261     
  -1.3039641504294175     
  -1.2829786959214022     
  -1.2598413858345985     
  -1.2346079599755941     
  -1.2073392078774710     
  -1.1781008223524931     
  -1.1469632412323716     
  -1.1140014776773539     
  -1.0792949394629541     
  -1.0429272376796641     
  -1.0049859853065144     
 -0.96556258614373225     
 -0.92475201461298417     
 -0.88265258695567117     
 -0.83936572438049395     
 -0.79499570873087733     
 -0.74964943126087491     
 -0.70343613512477843     
 -0.65646715220078544     
 -0.60885563488275707     
 -0.56071628348618874     
 -0.51216506992510302     
 -0.46331895832555436     
 -0.41429562324879937     
 -0.90640926634917152     
 -0.85738593127241636     
 -0.80853981967286759     
 -0.75998860611178254     
 -0.71184925471521399     
 -0.66423773739718539     
 -0.61726875447319229     
 -0.57105545833709570     
 -0.52570918086709395     
 -0.48133916521747722     
 -0.43805230264229972     
 -0.39595287498498666     
 -0.35514230345423847     
 -0.31571890429145699     
 -0.27777765191830706     
 -0.24140995013501698     
 -0.20670341192061692     
 -0.17374164836559935     
 -0.14260406724547758     
 -0.11336568172050010     
  -8.6096929622376805E-002
  -6.0863503763372462E-002
  -3.7726193676568487E-002
  -1.6740739168553120E-002
   2.0423039626550343E-003
   1.8577685720952863E-002
   3.2825570923356029E-002
   4.4751635166444759E-002
   5.4327147516857410E-002
   6.1529039726626156E-002
   6.6339961806606396E-002
   6.8748323824120439E-002
   6.8748323824120439E-002
   6.6339961806606396E-002
   6.1529039726626156E-002
   5.4327147516857410E-002
   4.4751635166444759E-002
   3.2825570923356029E-002
   1.8577685720952863E-002
   2.0423039626550343E-003
  -1.6740739168553120E-002
  -3.7726193676568598E-002
  -6.0863503763372351E-002
  -8.6096929622376583E-002
 -0.11336568172050010     
 -0.14260406724547747     
 -0.17374164836559913     
 -0.20670341192061692     
 -0.24140995013501676     
 -0.27777765191830717     
 -0.31571890429145688     
 -0.35514230345423836     
 -0.39595287498498666     
 -0.43805230264229961     
 -0.48133916521747688     
 -0.52570918086709384     
 -0.57105545833709548     
 -0.61726875447319229     
 -0.66423773739718528     
 -0.71184925471521376     
 -0.75998860611178254     
 -0.80853981967286748     
 -0.85738593127241602     
 -0.90640926634917141     
 -0.95549172339499588     
  -1.0045150584717513     
  -1.0533611700712999     
  -1.1019123836323848     
  -1.1500517350289536     
  -1.1976632523469819     
  -1.2446322352709749     
  -1.2908455314070719     
  -1.3361918088770735     
  -1.3805618245266904     
  -1.4238486871018676     
  -1.4659481147591809     
  -1.5067586862899291     
  -1.5461820854527106     
  -1.5841233378258603     
  -1.6204910396091505     
  -1.6551975778235506     
  -1.6881593413785680     
  -1.7192969224986898     
  -1.7485353080236676     
  -1.7758040601217908     
  -1.8010374859807952     
  -1.8241747960675991     
  -1.8451602505756144     
  -1.8639432937068228     
  -1.8804786754651204     
  -1.8947265606675237     
  -1.9066526249106124     
  -1.9162281372610250     
  -1.9234300294707940     
  -1.9282409515507739     
  -1.9306493135682881     
  -1.9306493135682881     
  -1.9282409515507739     
  -1.9234300294707940     
  -1.9162281372610250     
  -1.9066526249106124     
  -1.8947265606675239     
  -1.8804786754651206     
  -1.8639432937068228     
  -1.8451602505756144     
  -1.8241747960675991     
  -1.8010374859807952     
  -1.7758040601217910     
  -1.7485353080236679     
  -1.7192969224986898     
  -1.6881593413785683     
  -1.6551975778235508     
  -1.6204910396091510     
  -1.5841233378258610     
  -1.5461820854527111     
  -1.5067586862899289     
  -1.4659481147591811     
  -1.4238486871018681     
  -1.3805618245266906     
  -1.3361918088770741     
  -1.2908455314070717     
  -1.2446322352709753     
  -1.1976632523469823     
  -1.1500517350289539     
  -1.1019123836323856     
  -1.0533611700712999     
  -1.0045150584717513     
 -0.95549172339499622     
 -0.90640926634917163     
 -0.85738593127241647     
 -0.80853981967286770     
 -0.75998860611178265     
 -0.71184925471521410     
 -0.66423773739718550     
 -0.61726875447319229     
 -0.57105545833709570     
 -0.52570918086709395     
 -0.48133916521747733     
 -0.43805230264229983     
 -0.39595287498498677     
 -0.35514230345423858     
 -0.31571890429145710     
 -0.27777765191830717     
 -0.24140995013501709     
 -0.20670341192061703     
 -0.17374164836559947     
 -0.14260406724547769     
 -0.11336568172050021     
  -8.6096929622376916E-002
  -6.0863503763372573E-002
  -3.7726193676568598E-002
  -1.6740739168553231E-002
   2.0423039626549233E-003
   1.8577685720952752E-002
   3.2825570923355918E-002
   4.4751635166444648E-002
   5.4327147516857299E-002
   6.1529039726626045E-002
   6.6339961806606285E-002
   6.8748323824120328E-002