# vtk DataFile Version 2.0
yz_mesh
ASCII
DATASET STRUCTURED_GRID
DIMENSIONS         1         9         9
POINTS        81 float
   0.0000000000000000       -3.1415926535897931        0.0000000000000000     
   0.0000000000000000       -2.9040575511625821        0.0000000000000000     
   0.0000000000000000       -2.5806105374811690        0.0000000000000000     
   0.0000000000000000       -1.9261920446534628        0.0000000000000000     
   0.0000000000000000       -1.3322676295501878E-015   0.0000000000000000     
   0.0000000000000000        1.9261920446534608        0.0000000000000000     
   0.0000000000000000        2.5806105374811681        0.0000000000000000     
   0.0000000000000000        2.9040575511625812        0.0000000000000000     
   0.0000000000000000        3.1415926535897922        0.0000000000000000     
   0.0000000000000000       -3.1415926535897931       0.78539816339744828     
   0.0000000000000000       -2.9040575511625821       0.78539816339744828     
   0.0000000000000000       -2.5806105374811690       0.78539816339744828     
   0.0000000000000000       -1.9261920446534628       0.78539816339744828     
   0.0000000000000000       -1.3322676295501878E-015  0.78539816339744828     
   0.0000000000000000        1.9261920446534608       0.78539816339744828     
   0.0000000000000000        2.5806105374811681       0.78539816339744828     
   0.0000000000000000        2.9040575511625812       0.78539816339744828     
   0.0000000000000000        3.1415926535897922       0.78539816339744828     
   0.0000000000000000       -3.1415926535897931        1.5707963267948966     
   0.0000000000000000       -2.9040575511625821        1.5707963267948966     
   0.0000000000000000       -2.5806105374811690        1.5707963267948966     
   0.0000000000000000       -1.9261920446534628        1.5707963267948966     
   0.0000000000000000       -1.3322676295501878E-015   1.5707963267948966     
   0.0000000000000000        1.9261920446534608        1.5707963267948966     
   0.0000000000000000        2.5806105374811681        1.5707963267948966     
   0.0000000000000000        2.9040575511625812        1.5707963267948966     
   0.0000000000000000        3.1415926535897922        1.5707963267948966     
   0.0000000000000000       -3.1415926535897931        2.3561944901923448     
   0.0000000000000000       -2.9040575511625821        2.3561944901923448     
   0.0000000000000000       -2.5806105374811690        2.3561944901923448     
   0.0000000000000000       -1.9261920446534628        2.3561944901923448     
   0.0000000000000000       -1.3322676295501878E-015   2.3561944901923448     
   0.0000000000000000        1.9261920446534608        2.3561944901923448     
   0.0000000000000000        2.5806105374811681        2.3561944901923448     
   0.0000000000000000        2.9040575511625812        2.3561944901923448     
   0.0000000000000000        3.1415926535897922        2.3561944901923448     
   0.0000000000000000       -3.1415926535897931        3.1415926535897931     
   0.0000000000000000       -2.9040575511625821        3.1415926535897931     
   0.0000000000000000       -2.5806105374811690        3.1415926535897931     
   0.0000000000000000       -1.9261920446534628        3.1415926535897931     
   0.0000000000000000       -1.3322676295501878E-015   3.1415926535897931     
   0.0000000000000000        1.9261920446534608        3.1415926535897931     
   0.0000000000000000        2.5806105374811681        3.1415926535897931     
   0.0000000000000000        2.9040575511625812        3.1415926535897931     
   0.0000000000000000        3.1415926535897922        3.1415926535897931     
   0.0000000000000000       -3.1415926535897931        3.9269908169872414     
   0.0000000000000000       -2.9040575511625821        3.9269908169872414     
   0.0000000000000000       -2.5806105374811690        3.9269908169872414     
   0.0000000000000000       -1.9261920446534628        3.9269908169872414     
   0.0000000000000000       -1.3322676295501878E-015   3.9269908169872414     
   0.0000000000000000        1.9261920446534608        3.9269908169872414     
   0.0000000000000000        2.5806105374811681        3.9269908169872414     
   0.0000000000000000        2.9040575511625812        3.9269908169872414     
   0.0000000000000000        3.1415926535897922        3.9269908169872414     
   0.0000000000000000       -3.1415926535897931        4.7123889803846897     
   0.0000000000000000       -2.9040575511625821        4.7123889803846897     
   0.0000000000000000       -2.5806105374811690        4.7123889803846897     
   0.0000000000000000       -1.9261920446534628        4.7123889803846897     
   0.0000000000000000       -1.3322676295501878E-015   4.7123889803846897     
   0.0000000000000000        1.9261920446534608        4.7123889803846897     
   0.0000000000000000        2.5806105374811681        4.7123889803846897     
   0.0000000000000000        2.9040575511625812        4.7123889803846897     
   0.0000000000000000        3.1415926535897922        4.7123889803846897     
   0.0000000000000000       -3.1415926535897931        5.4977871437821380     
   0.0000000000000000       -2.9040575511625821        5.4977871437821380     
   0.0000000000000000       -2.5806105374811690        5.4977871437821380     
   0.0000000000000000       -1.9261920446534628        5.4977871437821380     
   0.0000000000000000       -1.3322676295501878E-015   5.4977871437821380     
   0.0000000000000000        1.9261920446534608        5.4977871437821380     
   0.0000000000000000        2.5806105374811681        5.4977871437821380     
   0.0000000000000000        2.9040575511625812        5.4977871437821380     
   0.0000000000000000        3.1415926535897922        5.4977871437821380     
   0.0000000000000000       -3.1415926535897931        6.2831853071795862     
   0.0000000000000000       -2.9040575511625821        6.2831853071795862     
   0.0000000000000000       -2.5806105374811690        6.2831853071795862     
   0.0000000000000000       -1.9261920446534628        6.2831853071795862     
   0.0000000000000000       -1.3322676295501878E-015   6.2831853071795862     
   0.0000000000000000        1.9261920446534608        6.2831853071795862     
   0.0000000000000000        2.5806105374811681        6.2831853071795862     
   0.0000000000000000        2.9040575511625812        6.2831853071795862     
   0.0000000000000000        3.1415926535897922        6.2831853071795862     
CELL_DATA        64
SCALARS p float        64
LOOKUP_TABLE default
  0.65113421274751460     
  0.39413636122879386     
   3.8232392871264009E-002
 -0.16975089903745572     
   1.7004846284978139     
   1.4925013365890965     
   1.1365973682315662     
  0.87959951671284631     
   1.1923303128937115     
  0.93533246137499082     
  0.57942849301746091     
  0.37144520110874124     
   2.2416807286440106     
   2.0336974367352934     
   1.6777934683777631     
   1.4207956168590432     
   1.1923303128937115     
  0.93533246137499082     
  0.57942849301746091     
  0.37144520110874124     
   2.2416807286440106     
   2.0336974367352934     
   1.6777934683777631     
   1.4207956168590432     
  0.65113421274751460     
  0.39413636122879397     
   3.8232392871264120E-002
 -0.16975089903745560     
   1.7004846284978139     
   1.4925013365890965     
   1.1365973682315662     
  0.87959951671284642     
 -0.11423265198266491     
 -0.37123050350138559     
 -0.72713447185891544     
 -0.93511776376763511     
  0.93511776376763445     
  0.72713447185891700     
  0.37123050350138670     
  0.11423265198266686     
 -0.65542875212886176     
 -0.91242660364758243     
  -1.2683305720051123     
  -1.4763138639138320     
  0.39392166362143755     
  0.18593837171272010     
 -0.16996559664481015     
 -0.42696344816352999     
 -0.65542875212886187     
 -0.91242660364758255     
  -1.2683305720051123     
  -1.4763138639138322     
  0.39392166362143743     
  0.18593837171271999     
 -0.16996559664481026     
 -0.42696344816353010     
 -0.11423265198266563     
 -0.37123050350138631     
 -0.72713447185891611     
 -0.93511776376763589     
  0.93511776376763367     
  0.72713447185891622     
  0.37123050350138598     
  0.11423265198266613     
CELL_DATA      1024
SCALARS p float      1024
LOOKUP_TABLE default
  0.40015369852720478     
  0.38600537391529399     
  0.37183783200582876     
  0.35763820248104516     
  0.34339352673865614     
  0.32909072237451920     
  0.31471654747929567     
  0.30025756472206555     
  0.28570010521542488     
  0.27103023218519295     
  0.25623370450517363     
  0.24129594020537307     
  0.22620198012334589     
  0.21093645194622582     
  0.19548353498968299     
  0.17982692618494919     
  0.16394980790287145     
  0.14783481844331881     
  0.13146402627002746     
  0.11481890938903433     
   9.7880341670613824E-002
   8.0628588422640812E-002
   6.3043314165871389E-002
   4.5103606375128835E-002
   2.6788019981140110E-002
   8.0746487350336071E-003
  -1.1058768803076491E-002
  -3.0634698781485503E-002
  -5.0675604529012097E-002
  -7.1203666018237743E-002
  -9.2240406011029619E-002
 -0.11380619704273870     
 -0.13591961635155686     
 -0.15859660688458738     
 -0.18184939109966275     
 -0.20568506979940421     
 -0.23010381991409917     
 -0.25509658208629099     
 -0.28064210007501272     
 -0.30670313830584012     
 -0.33322166034728889     
 -0.36011269908020788     
 -0.38725658916222178     
 -0.41448916629562399     
 -0.44158947156820821     
 -0.46826444482418378     
 -0.49413007131657788     
 -0.51868850062019622     
 -0.54130085221772006     
 -0.56115586299854825     
 -0.57723537390843283     
 -0.58827911004696709     
 -0.59275353887269078     
 -0.58883303293514611     
 -0.57440616983607495     
 -0.54712531390196517     
 -0.50452214906329762     
 -0.44421244468859872     
 -0.36420505860632674     
 -0.26330733274068913     
 -0.14157895666411408     
  -7.3578262783974280E-004
  0.15563451986741561     
  0.32217902539487558     
  0.49227029638112541     
  0.65881480190858555     
  0.81518510440384140     
  0.95602827844011595     
   1.0777566545166912     
   1.1786543803823288     
   1.2586617664646018     
   1.3189714708393012     
   1.3615746356779688     
   1.3888554916120788     
   1.4032823547111501     
   1.4072028606486950     
   1.4027284318229714     
   1.3916846956844373     
   1.3756051847745530     
   1.3557501739937250     
   1.3331378223962012     
   1.3085793930925833     
   1.2827137666001887     
   1.2560387933442134     
   1.2289384880716292     
   1.2017059109382271     
   1.1745620208562138     
   1.1476709821232935     
   1.1211524600818454     
   1.0950914218510182     
   1.0695459038622959     
   1.0445531416901039     
   1.0201343915754091     
  0.99629871287566751     
  0.97304592866059236     
  0.95036893812756240     
  0.92825551881874357     
  0.90668972778703449     
  0.88565298779424273     
  0.86512492630501781     
  0.84508402055749043     
  0.82550809057908225     
  0.80637467304097132     
  0.78766130179486571     
  0.76934571540087782     
  0.75140600761013365     
  0.73382073335336506     
  0.71656898010539116     
  0.69963041238697066     
  0.68298529550597842     
  0.66661450333268712     
  0.65049951387313354     
  0.63462239559105660     
  0.61896578678632297     
  0.60351286982977914     
  0.58824734165266002     
  0.57315338157063200     
  0.55821561727083058     
  0.54341908959081198     
  0.52874921656058016     
  0.51419175705393949     
  0.49973277429670937     
  0.48535859940148585     
  0.47105579503734885     
  0.45681111929496077     
  0.44261148977017717     
  0.42844394786071188     
  0.41429562324880109     
  0.94134979867340174     
  0.92720147406149100     
  0.91303393215202577     
  0.89883430262724207     
  0.88458962688485310     
  0.87028682252071621     
  0.85591264762549257     
  0.84145366486826245     
  0.82689620536162178     
  0.81222633233138997     
  0.79742980465137059     
  0.78249204035157005     
  0.76739808026954281     
  0.75213255209242280     
  0.73667963513587997     
  0.72102302633114612     
  0.70514590804906840     
  0.68903091858951582     
  0.67266012641622441     
  0.65601500953523129     
  0.63907644181681078     
  0.62182468856883777     
  0.60423941431206840     
  0.58629970652132579     
  0.56798412012733701     
  0.54927074888123051     
  0.53013733134312047     
  0.51056140136471151     
  0.49052049561718486     
  0.46999243412795921     
  0.44895569413516734     
  0.42738990310345826     
  0.40527648379464010     
  0.38259949326160958     
  0.35934670904653421     
  0.33551103034679275     
  0.31109228023209778     
  0.28609951805990597     
  0.26055400007118423     
  0.23449296184035684     
  0.20797443979890806     
  0.18108340106598908     
  0.15393951098397518     
  0.12670693385057297     
   9.9606628577988743E-002
   7.2931655322013178E-002
   4.7066028829619078E-002
   2.2507599526000677E-002
  -1.0475207152316202E-004
  -1.9959762852351348E-002
  -3.6039273762235924E-002
  -4.7083009900770079E-002
  -5.1557438726493876E-002
  -4.7636932788949204E-002
  -3.3210069689878052E-002
  -5.9292137557682700E-003
   3.6673951082899281E-002
   9.6983655457598239E-002
  0.17699104153987022     
  0.27788876740550783     
  0.39961714348208288     
  0.54046031751835721     
  0.69683062001361251     
  0.86337512554107254     
   1.0334663965273223     
   1.2000109020547824     
   1.3563812045500385     
   1.4972243785863131     
   1.6189527546628883     
   1.7198504805285260     
   1.7998578666107987     
   1.8601675709854981     
   1.9027707358241657     
   1.9300515917582757     
   1.9444784548573470     
   1.9483989607948919     
   1.9439245319691683     
   1.9328807958306342     
   1.9168012849207501     
   1.8969462741399219     
   1.8743339225423981     
   1.8497754932387802     
   1.8239098667463858     
   1.7972348934904103     
   1.7701345882178261     
   1.7429020110844240     
   1.7157581210024107     
   1.6888670822694904     
   1.6623485602280423     
   1.6362875219972151     
   1.6107420040084928     
   1.5857492418363011     
   1.5613304917216060     
   1.5374948130218646     
   1.5142420288067893     
   1.4915650382737593     
   1.4694516189649405     
   1.4478858279332316     
   1.4268490879404396     
   1.4063210264512147     
   1.3862801207036874     
   1.3667041907252793     
   1.3475707731871682     
   1.3288574019410626     
   1.3105418155470747     
   1.2926021077563306     
   1.2750168334995620     
   1.2577650802515881     
   1.2408265125331677     
   1.2241813956521754     
   1.2078106034788840     
   1.1916956140193304     
   1.1758184957372535     
   1.1601618869325199     
   1.1447089699759760     
   1.1294434417988570     
   1.1143494817168289     
   1.0994117174170275     
   1.0846151897370091     
   1.0699453167067772     
   1.0553878572001365     
   1.0409288744429064     
   1.0265546995476829     
   1.0122518951835457     
  0.99800721944115767     
  0.98380758991637407     
  0.96964004800690884     
  0.95549172339499810     
  0.94134979867340174     
  0.92720147406149100     
  0.91303393215202577     
  0.89883430262724207     
  0.88458962688485310     
  0.87028682252071621     
  0.85591264762549257     
  0.84145366486826245     
  0.82689620536162178     
  0.81222633233138997     
  0.79742980465137059     
  0.78249204035157005     
  0.76739808026954281     
  0.75213255209242280     
  0.73667963513587997     
  0.72102302633114612     
  0.70514590804906840     
  0.68903091858951582     
  0.67266012641622441     
  0.65601500953523129     
  0.63907644181681078     
  0.62182468856883777     
  0.60423941431206840     
  0.58629970652132579     
  0.56798412012733701     
  0.54927074888123051     
  0.53013733134312047     
  0.51056140136471151     
  0.49052049561718486     
  0.46999243412795921     
  0.44895569413516734     
  0.42738990310345826     
  0.40527648379464010     
  0.38259949326160958     
  0.35934670904653421     
  0.33551103034679275     
  0.31109228023209778     
  0.28609951805990597     
  0.26055400007118423     
  0.23449296184035684     
  0.20797443979890806     
  0.18108340106598908     
  0.15393951098397518     
  0.12670693385057297     
   9.9606628577988743E-002
   7.2931655322013178E-002
   4.7066028829619078E-002
   2.2507599526000677E-002
  -1.0475207152316202E-004
  -1.9959762852351348E-002
  -3.6039273762235924E-002
  -4.7083009900770079E-002
  -5.1557438726493876E-002
  -4.7636932788949204E-002
  -3.3210069689878052E-002
  -5.9292137557682700E-003
   3.6673951082899281E-002
   9.6983655457598239E-002
  0.17699104153987022     
  0.27788876740550783     
  0.39961714348208288     
  0.54046031751835721     
  0.69683062001361251     
  0.86337512554107254     
   1.0334663965273223     
   1.2000109020547824     
   1.3563812045500385     
   1.4972243785863131     
   1.6189527546628883     
   1.7198504805285260     
   1.7998578666107987     
   1.8601675709854981     
   1.9027707358241657     
   1.9300515917582757     
   1.9444784548573470     
   1.9483989607948919     
   1.9439245319691683     
   1.9328807958306342     
   1.9168012849207501     
   1.8969462741399219     
   1.8743339225423981     
   1.8497754932387802     
   1.8239098667463858     
   1.7972348934904103     
   1.7701345882178261     
   1.7429020110844240     
   1.7157581210024107     
   1.6888670822694904     
   1.6623485602280423     
   1.6362875219972151     
   1.6107420040084928     
   1.5857492418363011     
   1.5613304917216060     
   1.5374948130218646     
   1.5142420288067893     
   1.4915650382737593     
   1.4694516189649405     
   1.4478858279332316     
   1.4268490879404396     
   1.4063210264512147     
   1.3862801207036874     
   1.3667041907252793     
   1.3475707731871682     
   1.3288574019410626     
   1.3105418155470747     
   1.2926021077563306     
   1.2750168334995620     
   1.2577650802515881     
   1.2408265125331677     
   1.2241813956521754     
   1.2078106034788840     
   1.1916956140193304     
   1.1758184957372535     
   1.1601618869325199     
   1.1447089699759760     
   1.1294434417988570     
   1.1143494817168289     
   1.0994117174170275     
   1.0846151897370091     
   1.0699453167067772     
   1.0553878572001365     
   1.0409288744429064     
   1.0265546995476829     
   1.0122518951835457     
  0.99800721944115767     
  0.98380758991637407     
  0.96964004800690884     
  0.95549172339499810     
  0.40015369852720489     
  0.38600537391529410     
  0.37183783200582887     
  0.35763820248104528     
  0.34339352673865625     
  0.32909072237451931     
  0.31471654747929578     
  0.30025756472206566     
  0.28570010521542499     
  0.27103023218519307     
  0.25623370450517374     
  0.24129594020537318     
  0.22620198012334600     
  0.21093645194622593     
  0.19548353498968310     
  0.17982692618494930     
  0.16394980790287156     
  0.14783481844331892     
  0.13146402627002757     
  0.11481890938903444     
   9.7880341670613935E-002
   8.0628588422640923E-002
   6.3043314165871500E-002
   4.5103606375128946E-002
   2.6788019981140221E-002
   8.0746487350337182E-003
  -1.1058768803076380E-002
  -3.0634698781485392E-002
  -5.0675604529011986E-002
  -7.1203666018237632E-002
  -9.2240406011029508E-002
 -0.11380619704273859     
 -0.13591961635155675     
 -0.15859660688458727     
 -0.18184939109966264     
 -0.20568506979940410     
 -0.23010381991409906     
 -0.25509658208629088     
 -0.28064210007501261     
 -0.30670313830584001     
 -0.33322166034728878     
 -0.36011269908020777     
 -0.38725658916222166     
 -0.41448916629562388     
 -0.44158947156820810     
 -0.46826444482418367     
 -0.49413007131657777     
 -0.51868850062019622     
 -0.54130085221772006     
 -0.56115586299854825     
 -0.57723537390843283     
 -0.58827911004696687     
 -0.59275353887269078     
 -0.58883303293514611     
 -0.57440616983607495     
 -0.54712531390196517     
 -0.50452214906329762     
 -0.44421244468859861     
 -0.36420505860632663     
 -0.26330733274068902     
 -0.14157895666411396     
  -7.3578262783963178E-004
  0.15563451986741572     
  0.32217902539487570     
  0.49227029638112552     
  0.65881480190858566     
  0.81518510440384162     
  0.95602827844011617     
   1.0777566545166914     
   1.1786543803823291     
   1.2586617664646018     
   1.3189714708393014     
   1.3615746356779688     
   1.3888554916120788     
   1.4032823547111501     
   1.4072028606486950     
   1.4027284318229714     
   1.3916846956844373     
   1.3756051847745532     
   1.3557501739937250     
   1.3331378223962012     
   1.3085793930925833     
   1.2827137666001889     
   1.2560387933442134     
   1.2289384880716294     
   1.2017059109382271     
   1.1745620208562138     
   1.1476709821232938     
   1.1211524600818457     
   1.0950914218510182     
   1.0695459038622959     
   1.0445531416901042     
   1.0201343915754093     
  0.99629871287566774     
  0.97304592866059236     
  0.95036893812756262     
  0.92825551881874380     
  0.90668972778703472     
  0.88565298779424273     
  0.86512492630501803     
  0.84508402055749055     
  0.82550809057908237     
  0.80637467304097155     
  0.78766130179486582     
  0.76934571540087793     
  0.75140600761013365     
  0.73382073335336506     
  0.71656898010539127     
  0.69963041238697077     
  0.68298529550597853     
  0.66661450333268712     
  0.65049951387313365     
  0.63462239559105682     
  0.61896578678632297     
  0.60351286982977936     
  0.58824734165266013     
  0.57315338157063211     
  0.55821561727083058     
  0.54341908959081220     
  0.52874921656058027     
  0.51419175705393960     
  0.49973277429670948     
  0.48535859940148596     
  0.47105579503734896     
  0.45681111929496088     
  0.44261148977017728     
  0.42844394786071199     
  0.41429562324880120     
 -0.36521316620297467     
 -0.37936149081488546     
 -0.39352903272435069     
 -0.40772866224913429     
 -0.42197333799152331     
 -0.43627614235566026     
 -0.45065031725088378     
 -0.46510930000811390     
 -0.47966675951475457     
 -0.49433663254498650     
 -0.50913316022500577     
 -0.52407092452480641     
 -0.53916488460683354     
 -0.55443041278395366     
 -0.56988332974049649     
 -0.58553993854523023     
 -0.60141705682730806     
 -0.61753204628686065     
 -0.63390283846015194     
 -0.65054795534114507     
 -0.66748652305956568     
 -0.68473827630753870     
 -0.70232355056430806     
 -0.72026325835505056     
 -0.73857884474903934     
 -0.75729221599514585     
 -0.77642563353325600     
 -0.79600156351166496     
 -0.81604246925919155     
 -0.83657053074841725     
 -0.85760727074120902     
 -0.87917306177291810     
 -0.90128648108173626     
 -0.92396347161476688     
 -0.94721625582984226     
 -0.97105193452958360     
 -0.99547068464427868     
  -1.0204634468164704     
  -1.0460089648051922     
  -1.0720700030360195     
  -1.0985885250774683     
  -1.1254795638103874     
  -1.1526234538924012     
  -1.1798560310258035     
  -1.2069563362983877     
  -1.2336313095543632     
  -1.2594969360467574     
  -1.2840553653503757     
  -1.3066677169478995     
  -1.3265227277287277     
  -1.3426022386386123     
  -1.3536459747771465     
  -1.3581204036028702     
  -1.3541998976653256     
  -1.3397730345662544     
  -1.3124921786321446     
  -1.2698890137934771     
  -1.2095793094187781     
  -1.1295719233365062     
  -1.0286741974708686     
 -0.90694582139429358     
 -0.76610264735801925     
 -0.60973234486276384     
 -0.44318783933530387     
 -0.27309656834905405     
 -0.10655206282159391     
   4.9818239673662001E-002
  0.19066141370993656     
  0.31238978978651183     
  0.41328751565214944     
  0.49329490173442231     
  0.55360460610912177     
  0.59620777094778932     
  0.62348862688189932     
  0.63791548998097070     
  0.64183599591851559     
  0.63736156709279190     
  0.62631783095425786     
  0.61023832004437351     
  0.59038330926354554     
  0.56777095766602170     
  0.54321252836240386     
  0.51734690187000920     
  0.49067192861403391     
  0.46357162334144980     
  0.43633904620804759     
  0.40919515612603424     
  0.38230411739311415     
  0.35578559535166604     
  0.32972455712083865     
  0.30417903913211636     
  0.27918627695992454     
  0.25476752684522969     
  0.23093184814548812     
  0.20767906393041285     
  0.18500207339738300     
  0.16288865408856418     
  0.14132286305685510     
  0.12028612306406322     
   9.9758061574838408E-002
   7.9717155827310981E-002
   6.0141225848902802E-002
   4.1007808310791927E-002
   2.2294437064686257E-002
   3.9788506706983640E-003
  -1.3960857120045855E-002
  -3.1546131376814446E-002
  -4.8797884624788290E-002
  -6.5736452343208795E-002
  -8.2381569224201034E-002
  -9.8752361397492383E-002
 -0.11486735085704591     
 -0.13074446913912280     
 -0.14640107794385654     
 -0.16185399490040026     
 -0.17711952307751944     
 -0.19221348315954748     
 -0.20715124745934893     
 -0.22194777513936742     
 -0.23661764816959932     
 -0.25117510767623996     
 -0.26563409043347008     
 -0.28000826532869361     
 -0.29431106969283061     
 -0.30855574543521869     
 -0.32275537496000228     
 -0.33692291686946757     
 -0.35107124148137836     
 -0.90640926634917152     
 -0.92055759096108225     
 -0.93472513287054748     
 -0.94892476239533119     
 -0.96316943813772016     
 -0.97747224250185705     
 -0.99184641739708068     
  -1.0063054001543108     
  -1.0208628596609515     
  -1.0355327326911834     
  -1.0503292603712027     
  -1.0652670246710032     
  -1.0803609847530304     
  -1.0956265129301506     
  -1.1110794298866933     
  -1.1267360386914271     
  -1.1426131569735047     
  -1.1587281464330574     
  -1.1750989386063488     
  -1.1917440554873420     
  -1.2086826232057626     
  -1.2259343764537354     
  -1.2435196507105049     
  -1.2614593585012475     
  -1.2797749448952362     
  -1.2984883161413427     
  -1.3176217336794527     
  -1.3371976636578617     
  -1.3572385694053883     
  -1.3777666308946142     
  -1.3988033708874059     
  -1.4203691619191150     
  -1.4424825812279332     
  -1.4651595717609638     
  -1.4884123559760392     
  -1.5122480346757805     
  -1.5366667847904756     
  -1.5616595469626673     
  -1.5872050649513891     
  -1.6132661031822164     
  -1.6397846252236652     
  -1.6666756639565841     
  -1.6938195540385981     
  -1.7210521311720002     
  -1.7481524364445846     
  -1.7748274097005601     
  -1.8006930361929543     
  -1.8252514654965726     
  -1.8478638170940964     
  -1.8677188278749246     
  -1.8837983387848092     
  -1.8948420749233432     
  -1.8993165037490671     
  -1.8953959978115225     
  -1.8809691347124513     
  -1.8536882787783415     
  -1.8110851139396740     
  -1.7507754095649750     
  -1.6707680234827031     
  -1.5698702976170655     
  -1.4481419215404903     
  -1.3072987475042162     
  -1.1509284450089607     
 -0.98438393948150071     
 -0.81429266849525084     
 -0.64774816296779081     
 -0.49137786047253484     
 -0.35053468643626029     
 -0.22880631035968502     
 -0.12790858449404741     
  -4.7901198411774537E-002
   1.2408505962924976E-002
   5.5011670801592416E-002
   8.2292526735702420E-002
   9.6719389834773795E-002
  0.10063989577231869     
   9.6165466946595002E-002
   8.5121730808060958E-002
   6.9042219898176715E-002
   4.9187209117348640E-002
   2.6574857519824802E-002
   2.0164282162069558E-003
  -2.3849198276187589E-002
  -5.0524171532162931E-002
  -7.7624476804747045E-002
 -0.10485705393814926     
 -0.13200094402016260     
 -0.15889198275308269     
 -0.18541050479453081     
 -0.21147154302535820     
 -0.23701706101408049     
 -0.26200982318627231     
 -0.28642857330096716     
 -0.31026425200070873     
 -0.33351703621578399     
 -0.35619402674881384     
 -0.37830744605763267     
 -0.39987323708934175     
 -0.42090997708213362     
 -0.44143803857135844     
 -0.46147894431888586     
 -0.48105487429729404     
 -0.50018829183540492     
 -0.51890166308151064     
 -0.53721724947549854     
 -0.55515695726624270     
 -0.57274223152301129     
 -0.58999398477098519     
 -0.60693255248940559     
 -0.62357766937039782     
 -0.63994846154368923     
 -0.65606345100324281     
 -0.67194056928531964     
 -0.68759717809005338     
 -0.70305009504659710     
 -0.71831562322371623     
 -0.73340958330574435     
 -0.74834734760554578     
 -0.76314387528556427     
 -0.77781374831579619     
 -0.79237120782243686     
 -0.80683019057966687     
 -0.82120436547489051     
 -0.83550716983902740     
 -0.84975184558141559     
 -0.86395147510619918     
 -0.87811901701566442     
 -0.89226734162757515     
 -0.90640926634917163     
 -0.92055759096108236     
 -0.93472513287054759     
 -0.94892476239533119     
 -0.96316943813772027     
 -0.97747224250185716     
 -0.99184641739708079     
  -1.0063054001543108     
  -1.0208628596609515     
  -1.0355327326911834     
  -1.0503292603712029     
  -1.0652670246710034     
  -1.0803609847530304     
  -1.0956265129301506     
  -1.1110794298866935     
  -1.1267360386914271     
  -1.1426131569735050     
  -1.1587281464330577     
  -1.1750989386063488     
  -1.1917440554873422     
  -1.2086826232057626     
  -1.2259343764537356     
  -1.2435196507105051     
  -1.2614593585012477     
  -1.2797749448952362     
  -1.2984883161413427     
  -1.3176217336794529     
  -1.3371976636578620     
  -1.3572385694053886     
  -1.3777666308946142     
  -1.3988033708874061     
  -1.4203691619191150     