# vtk DataFile Version 2.0
zx_mesh
ASCII
DATASET STRUCTURED_GRID
DIMENSIONS         5         1         5
POINTS        25 float
   0.0000000000000000       -1.0000000000000000        0.0000000000000000     
   1.5000000000000000       -1.0000000000000000        0.0000000000000000     
   3.0000000000000000       -1.0000000000000000        0.0000000000000000     
   4.5000000000000000       -1.0000000000000000        0.0000000000000000     
   6.0000000000000000       -1.0000000000000000        0.0000000000000000     
   0.0000000000000000       -1.0000000000000000       0.75000000000000000     
   1.5000000000000000       -1.0000000000000000       0.75000000000000000     
   3.0000000000000000       -1.0000000000000000       0.75000000000000000     
   4.5000000000000000       -1.0000000000000000       0.75000000000000000     
   6.0000000000000000       -1.0000000000000000       0.75000000000000000     
   0.0000000000000000       -1.0000000000000000        1.5000000000000000     
   1.5000000000000000       -1.0000000000000000        1.5000000000000000     
   3.0000000000000000       -1.0000000000000000        1.5000000000000000     
   4.5000000000000000       -1.0000000000000000        1.5000000000000000     
   6.0000000000000000       -1.0000000000000000        1.5000000000000000     
   0.0000000000000000       -1.0000000000000000        2.2500000000000000     
   1.5000000000000000       -1.0000000000000000        2.2500000000000000     
   3.0000000000000000       -1.0000000000000000        2.2500000000000000     
   4.5000000000000000       -1.0000000000000000        2.2500000000000000     
   6.0000000000000000       -1.0000000000000000        2.2500000000000000     
   0.0000000000000000       -1.0000000000000000        3.0000000000000000     
   1.5000000000000000       -1.0000000000000000        3.0000000000000000     
   3.0000000000000000       -1.0000000000000000        3.0000000000000000     
   4.5000000000000000       -1.0000000000000000        3.0000000000000000     
   6.0000000000000000       -1.0000000000000000        3.0000000000000000     
CELL_DATA        16
SCALARS u float        16
LOOKUP_TABLE default
  0.58124763469016627     
  0.18310954983075906     
  0.23669778299283228     
  0.47069288150940003     
  -6.7983516884915662E-002
  0.27075649584431649     
  0.93247811287443483     
  0.75490974247609510     
   1.0784098076796667     
   9.0456178307733892E-002
   4.2252359397708050E-002
  0.56865501612898195     
  0.79803306883260661     
  0.66416998371842595     
  -6.3548435197189890E-002
  0.92759170499402810     
SCALARS v float        16
LOOKUP_TABLE default
   0.0000000000000000     
   0.0000000000000000     
   0.0000000000000000     
   0.0000000000000000     
   0.0000000000000000     
   0.0000000000000000     
   0.0000000000000000     
   0.0000000000000000     
   0.0000000000000000     
   0.0000000000000000     
   0.0000000000000000     
   0.0000000000000000     
   0.0000000000000000     
   0.0000000000000000     
   0.0000000000000000     
   0.0000000000000000     
SCALARS w float        16
LOOKUP_TABLE default
  0.12720951506843486     
  0.37014454977307559     
  -9.1895151392467594E-002
  0.32886634380618796     
 -0.57409378741110673     
  0.21516627468087729     
 -0.11190401666421902     
 -0.47311565317682375     
   2.8860500608934456E-002
  0.53746088836838457     
 -0.40003543742286368     
  -9.5180001944841927E-002
  0.51453829603991674     
  0.17214052362885476     
 -0.40487835745959472     
  0.58445682336220728     
SCALARS p float        16
LOOKUP_TABLE default
   0.0000000000000000     
   0.0000000000000000     
   0.0000000000000000     
   0.0000000000000000     
   0.0000000000000000     
   0.0000000000000000     
   0.0000000000000000     
   0.0000000000000000     
   0.0000000000000000     
   0.0000000000000000     
   0.0000000000000000     
   0.0000000000000000     
   0.0000000000000000     
   0.0000000000000000     
   0.0000000000000000     
   0.0000000000000000     
