# vtk DataFile Version 2.0
xy_mesh
ASCII
DATASET STRUCTURED_GRID
DIMENSIONS         7         7         1
POINTS        49 float
   0.0000000000000000       -3.1415926535897931        0.0000000000000000     
   1.0471975511965976       -3.1415926535897931        0.0000000000000000     
   2.0943951023931953       -3.1415926535897931        0.0000000000000000     
   3.1415926535897931       -3.1415926535897931        0.0000000000000000     
   4.1887902047863905       -3.1415926535897931        0.0000000000000000     
   5.2359877559829879       -3.1415926535897931        0.0000000000000000     
   6.2831853071795862       -3.1415926535897931        0.0000000000000000     
   0.0000000000000000       -2.0943951023931957        0.0000000000000000     
   1.0471975511965976       -2.0943951023931957        0.0000000000000000     
   2.0943951023931953       -2.0943951023931957        0.0000000000000000     
   3.1415926535897931       -2.0943951023931957        0.0000000000000000     
   4.1887902047863905       -2.0943951023931957        0.0000000000000000     
   5.2359877559829879       -2.0943951023931957        0.0000000000000000     
   6.2831853071795862       -2.0943951023931957        0.0000000000000000     
   0.0000000000000000       -1.0471975511965979        0.0000000000000000     
   1.0471975511965976       -1.0471975511965979        0.0000000000000000     
   2.0943951023931953       -1.0471975511965979        0.0000000000000000     
   3.1415926535897931       -1.0471975511965979        0.0000000000000000     
   4.1887902047863905       -1.0471975511965979        0.0000000000000000     
   5.2359877559829879       -1.0471975511965979        0.0000000000000000     
   6.2831853071795862       -1.0471975511965979        0.0000000000000000     
   0.0000000000000000        0.0000000000000000        0.0000000000000000     
   1.0471975511965976        0.0000000000000000        0.0000000000000000     
   2.0943951023931953        0.0000000000000000        0.0000000000000000     
   3.1415926535897931        0.0000000000000000        0.0000000000000000     
   4.1887902047863905        0.0000000000000000        0.0000000000000000     
   5.2359877559829879        0.0000000000000000        0.0000000000000000     
   6.2831853071795862        0.0000000000000000        0.0000000000000000     
   0.0000000000000000        1.0471975511965974        0.0000000000000000     
   1.0471975511965976        1.0471975511965974        0.0000000000000000     
   2.0943951023931953        1.0471975511965974        0.0000000000000000     
   3.1415926535897931        1.0471975511965974        0.0000000000000000     
   4.1887902047863905        1.0471975511965974        0.0000000000000000     
   5.2359877559829879        1.0471975511965974        0.0000000000000000     
   6.2831853071795862        1.0471975511965974        0.0000000000000000     
   0.0000000000000000        2.0943951023931948        0.0000000000000000     
   1.0471975511965976        2.0943951023931948        0.0000000000000000     
   2.0943951023931953        2.0943951023931948        0.0000000000000000     
   3.1415926535897931        2.0943951023931948        0.0000000000000000     
   4.1887902047863905        2.0943951023931948        0.0000000000000000     
   5.2359877559829879        2.0943951023931948        0.0000000000000000     
   6.2831853071795862        2.0943951023931948        0.0000000000000000     
   0.0000000000000000        3.1415926535897931        0.0000000000000000     
   1.0471975511965976        3.1415926535897931        0.0000000000000000     
   2.0943951023931953        3.1415926535897931        0.0000000000000000     
   3.1415926535897931        3.1415926535897931        0.0000000000000000     
   4.1887902047863905        3.1415926535897931        0.0000000000000000     
   5.2359877559829879        3.1415926535897931        0.0000000000000000     
   6.2831853071795862        3.1415926535897931        0.0000000000000000     
CELL_DATA        36
SCALARS p float        36
LOOKUP_TABLE default
  0.49999999999999994     
   1.0000000000000000     
  0.50000000000000033     
 -0.49999999999999972     
  -1.0000000000000000     
 -0.50000000000000044     
  -5.5511151231257827E-017
  0.49999999999999994     
   2.7755575615628914E-016
 -0.99999999999999978     
  -1.5000000000000000     
  -1.0000000000000004     
  0.49999999999999967     
  0.99999999999999978     
  0.50000000000000000     
 -0.50000000000000000     
  -1.0000000000000002     
 -0.50000000000000067     
   1.5000000000000002     
   2.0000000000000000     
   1.5000000000000004     
  0.50000000000000044     
   1.6653345369377348E-016
  0.49999999999999972     
   2.0000000000000000     
   2.5000000000000000     
   2.0000000000000004     
   1.0000000000000002     
  0.49999999999999994     
  0.99999999999999956     
   1.5000000000000002     
   2.0000000000000004     
   1.5000000000000007     
  0.50000000000000056     
   2.7755575615628914E-016
  0.49999999999999983     
CELL_DATA        36
SCALARS p float        36
LOOKUP_TABLE default
  0.49999999999999994     
   1.0000000000000000     
  0.50000000000000033     
 -0.49999999999999972     
  -1.0000000000000000     
 -0.50000000000000044     
  -5.5511151231257827E-017
  0.49999999999999994     
   2.7755575615628914E-016
 -0.99999999999999978     
  -1.5000000000000000     
  -1.0000000000000004     
  0.49999999999999967     
  0.99999999999999978     
  0.50000000000000000     
 -0.50000000000000000     
  -1.0000000000000002     
 -0.50000000000000067     
   1.5000000000000002     
   2.0000000000000000     
   1.5000000000000004     
  0.50000000000000044     
   1.6653345369377348E-016
  0.49999999999999972     
   2.0000000000000000     
   2.5000000000000000     
   2.0000000000000004     
   1.0000000000000002     
  0.49999999999999994     
  0.99999999999999956     
   1.5000000000000002     
   2.0000000000000004     
   1.5000000000000007     
  0.50000000000000056     
   2.7755575615628914E-016
  0.49999999999999983     
CELL_DATA        36
SCALARS p float        36
LOOKUP_TABLE default
  0.49999999999999994     
   1.0000000000000000     
  0.50000000000000033     
 -0.49999999999999972     
  -1.0000000000000000     
 -0.50000000000000044     
  -5.5511151231257827E-017
  0.49999999999999994     
   2.7755575615628914E-016
 -0.99999999999999978     
  -1.5000000000000000     
  -1.0000000000000004     
  0.49999999999999967     
  0.99999999999999978     
  0.50000000000000000     
 -0.50000000000000000     
  -1.0000000000000002     
 -0.50000000000000067     
   1.5000000000000002     
   2.0000000000000000     
   1.5000000000000004     
  0.50000000000000044     
   1.6653345369377348E-016
  0.49999999999999972     
   2.0000000000000000     
   2.5000000000000000     
   2.0000000000000004     
   1.0000000000000002     
  0.49999999999999994     
  0.99999999999999956     
   1.5000000000000002     
   2.0000000000000004     
   1.5000000000000007     
  0.50000000000000056     
   2.7755575615628914E-016
  0.49999999999999983     
CELL_DATA        36
SCALARS p float        36
LOOKUP_TABLE default
  0.49999999999999994     
   1.0000000000000000     
  0.50000000000000033     
 -0.49999999999999972     
  -1.0000000000000000     
 -0.50000000000000044     
  -5.5511151231257827E-017
  0.49999999999999994     
   2.7755575615628914E-016
 -0.99999999999999978     
  -1.5000000000000000     
  -1.0000000000000004     
  0.49999999999999967     
  0.99999999999999978     
  0.50000000000000000     
 -0.50000000000000000     
  -1.0000000000000002     
 -0.50000000000000067     
   1.5000000000000002     
   2.0000000000000000     
   1.5000000000000004     
  0.50000000000000044     
   1.6653345369377348E-016
  0.49999999999999972     
   2.0000000000000000     
   2.5000000000000000     
   2.0000000000000004     
   1.0000000000000002     
  0.49999999999999994     
  0.99999999999999956     
   1.5000000000000002     
   2.0000000000000004     
   1.5000000000000007     
  0.50000000000000056     
   2.7755575615628914E-016
  0.49999999999999983     
CELL_DATA        36
SCALARS p float        36
LOOKUP_TABLE default
  0.49999999999999994     
   1.0000000000000000     
  0.50000000000000033     
 -0.49999999999999972     
  -1.0000000000000000     
 -0.50000000000000044     
  -5.5511151231257827E-017
  0.49999999999999994     
   2.7755575615628914E-016
 -0.99999999999999978     
  -1.5000000000000000     
  -1.0000000000000004     
  0.49999999999999967     
  0.99999999999999978     
  0.50000000000000000     
 -0.50000000000000000     
  -1.0000000000000002     
 -0.50000000000000067     
   1.5000000000000002     
   2.0000000000000000     
   1.5000000000000004     
  0.50000000000000044     
   1.6653345369377348E-016
  0.49999999999999972     
   2.0000000000000000     
   2.5000000000000000     
   2.0000000000000004     
   1.0000000000000002     
  0.49999999999999994     
  0.99999999999999956     
   1.5000000000000002     
   2.0000000000000004     
   1.5000000000000007     
  0.50000000000000056     
   2.7755575615628914E-016
  0.49999999999999983     
CELL_DATA        36
SCALARS p float        36
LOOKUP_TABLE default
  0.49999999999999994     
   1.0000000000000000     
  0.50000000000000033     
 -0.49999999999999972     
  -1.0000000000000000     
 -0.50000000000000044     
  -5.5511151231257827E-017
  0.49999999999999994     
   2.7755575615628914E-016
 -0.99999999999999978     
  -1.5000000000000000     
  -1.0000000000000004     
  0.49999999999999967     
  0.99999999999999978     
  0.50000000000000000     
 -0.50000000000000000     
  -1.0000000000000002     
 -0.50000000000000067     
   1.5000000000000002     
   2.0000000000000000     
   1.5000000000000004     
  0.50000000000000044     
   1.6653345369377348E-016
  0.49999999999999972     
   2.0000000000000000     
   2.5000000000000000     
   2.0000000000000004     
   1.0000000000000002     
  0.49999999999999994     
  0.99999999999999956     
   1.5000000000000002     
   2.0000000000000004     
   1.5000000000000007     
  0.50000000000000056     
   2.7755575615628914E-016
  0.49999999999999983     
CELL_DATA        36
SCALARS p float        36
LOOKUP_TABLE default
  0.49999999999999994     
   1.0000000000000000     
  0.50000000000000033     
 -0.49999999999999972     
  -1.0000000000000000     
 -0.50000000000000044     
  -5.5511151231257827E-017
  0.49999999999999994     
   2.7755575615628914E-016
 -0.99999999999999978     
  -1.5000000000000000     
  -1.0000000000000004     
  0.49999999999999967     
  0.99999999999999978     
  0.50000000000000000     
 -0.50000000000000000     
  -1.0000000000000002     
 -0.50000000000000067     
   1.5000000000000002     
   2.0000000000000000     
   1.5000000000000004     
  0.50000000000000044     
   1.6653345369377348E-016
  0.49999999999999972     
   2.0000000000000000     
   2.5000000000000000     
   2.0000000000000004     
   1.0000000000000002     
  0.49999999999999994     
  0.99999999999999956     
   1.5000000000000002     
   2.0000000000000004     
   1.5000000000000007     
  0.50000000000000056     
   2.7755575615628914E-016
  0.49999999999999983     
CELL_DATA        36
SCALARS p float        36
LOOKUP_TABLE default
  0.49999999999999994     
   1.0000000000000000     
  0.50000000000000033     
 -0.49999999999999972     
  -1.0000000000000000     
 -0.50000000000000044     
  -5.5511151231257827E-017
  0.49999999999999994     
   2.7755575615628914E-016
 -0.99999999999999978     
  -1.5000000000000000     
  -1.0000000000000004     
  0.49999999999999967     
  0.99999999999999978     
  0.50000000000000000     
 -0.50000000000000000     
  -1.0000000000000002     
 -0.50000000000000067     
   1.5000000000000002     
   2.0000000000000000     
   1.5000000000000004     
  0.50000000000000044     
   1.6653345369377348E-016
  0.49999999999999972     
   2.0000000000000000     
   2.5000000000000000     
   2.0000000000000004     
   1.0000000000000002     
  0.49999999999999994     
  0.99999999999999956     
   1.5000000000000002     
   2.0000000000000004     
   1.5000000000000007     
  0.50000000000000056     
   2.7755575615628914E-016
  0.49999999999999983     
CELL_DATA        36
SCALARS p float        36
LOOKUP_TABLE default
  0.49999999999999994     
   1.0000000000000000     
  0.50000000000000033     
 -0.49999999999999972     
  -1.0000000000000000     
 -0.50000000000000044     
  -5.5511151231257827E-017
  0.49999999999999994     
   2.7755575615628914E-016
 -0.99999999999999978     
  -1.5000000000000000     
  -1.0000000000000004     
  0.49999999999999967     
  0.99999999999999978     
  0.50000000000000000     
 -0.50000000000000000     
  -1.0000000000000002     
 -0.50000000000000067     
   1.5000000000000002     
   2.0000000000000000     
   1.5000000000000004     
  0.50000000000000044     
   1.6653345369377348E-016
  0.49999999999999972     
   2.0000000000000000     
   2.5000000000000000     
   2.0000000000000004     
   1.0000000000000002     
  0.49999999999999994     
  0.99999999999999956     
   1.5000000000000002     
   2.0000000000000004     
   1.5000000000000007     
  0.50000000000000056     
   2.7755575615628914E-016
  0.49999999999999983     
CELL_DATA        36
SCALARS p float        36
LOOKUP_TABLE default
  0.49999999999999994     
   1.0000000000000000     
  0.50000000000000033     
 -0.49999999999999972     
  -1.0000000000000000     
 -0.50000000000000044     
  -5.5511151231257827E-017
  0.49999999999999994     
   2.7755575615628914E-016
 -0.99999999999999978     
  -1.5000000000000000     
  -1.0000000000000004     
  0.49999999999999967     
  0.99999999999999978     
  0.50000000000000000     
 -0.50000000000000000     
  -1.0000000000000002     
 -0.50000000000000067     
   1.5000000000000002     
   2.0000000000000000     
   1.5000000000000004     
  0.50000000000000044     
   1.6653345369377348E-016
  0.49999999999999972     
   2.0000000000000000     
   2.5000000000000000     
   2.0000000000000004     
   1.0000000000000002     
  0.49999999999999994     
  0.99999999999999956     
   1.5000000000000002     
   2.0000000000000004     
   1.5000000000000007     
  0.50000000000000056     
   2.7755575615628914E-016
  0.49999999999999983     
CELL_DATA        36
SCALARS p float        36
LOOKUP_TABLE default
  0.49999999999999994     
   1.0000000000000000     
  0.50000000000000033     
 -0.49999999999999972     
  -1.0000000000000000     
 -0.50000000000000044     
  -5.5511151231257827E-017
  0.49999999999999994     
   2.7755575615628914E-016
 -0.99999999999999978     
  -1.5000000000000000     
  -1.0000000000000004     
  0.49999999999999967     
  0.99999999999999978     
  0.50000000000000000     
 -0.50000000000000000     
  -1.0000000000000002     
 -0.50000000000000067     
   1.5000000000000002     
   2.0000000000000000     
   1.5000000000000004     
  0.50000000000000044     
   1.6653345369377348E-016
  0.49999999999999972     
   2.0000000000000000     
   2.5000000000000000     
   2.0000000000000004     
   1.0000000000000002     
  0.49999999999999994     
  0.99999999999999956     
   1.5000000000000002     
   2.0000000000000004     
   1.5000000000000007     
  0.50000000000000056     
   2.7755575615628914E-016
  0.49999999999999983     
CELL_DATA        36
SCALARS p float        36
LOOKUP_TABLE default
  0.49999999999999994     
   1.0000000000000000     
  0.50000000000000033     
 -0.49999999999999972     
  -1.0000000000000000     
 -0.50000000000000044     
  -5.5511151231257827E-017
  0.49999999999999994     
   2.7755575615628914E-016
 -0.99999999999999978     
  -1.5000000000000000     
  -1.0000000000000004     
  0.49999999999999967     
  0.99999999999999978     
  0.50000000000000000     
 -0.50000000000000000     
  -1.0000000000000002     
 -0.50000000000000067     
   1.5000000000000002     
   2.0000000000000000     
   1.5000000000000004     
  0.50000000000000044     
   1.6653345369377348E-016
  0.49999999999999972     
   2.0000000000000000     
   2.5000000000000000     
   2.0000000000000004     
   1.0000000000000002     
  0.49999999999999994     
  0.99999999999999956     
   1.5000000000000002     
   2.0000000000000004     
   1.5000000000000007     
  0.50000000000000056     
   2.7755575615628914E-016
  0.49999999999999983     
CELL_DATA        36
SCALARS p float        36
LOOKUP_TABLE default
  0.49999999999999994     
   1.0000000000000000     
  0.50000000000000033     
 -0.49999999999999972     
  -1.0000000000000000     
 -0.50000000000000044     
  -5.5511151231257827E-017
  0.49999999999999994     
   2.7755575615628914E-016
 -0.99999999999999978     
  -1.5000000000000000     
  -1.0000000000000004     
  0.49999999999999967     
  0.99999999999999978     
  0.50000000000000000     
 -0.50000000000000000     
  -1.0000000000000002     
 -0.50000000000000067     
   1.5000000000000002     
   2.0000000000000000     
   1.5000000000000004     
  0.50000000000000044     
   1.6653345369377348E-016
  0.49999999999999972     
   2.0000000000000000     
   2.5000000000000000     
   2.0000000000000004     
   1.0000000000000002     
  0.49999999999999994     
  0.99999999999999956     
   1.5000000000000002     
   2.0000000000000004     
   1.5000000000000007     
  0.50000000000000056     
   2.7755575615628914E-016
  0.49999999999999983     
CELL_DATA      4096
SCALARS p float      4096
LOOKUP_TABLE default
   4.9067674327418064E-002
  0.14673047445536180     
  0.24298017990326393     
  0.33688985339222011     
  0.42755509343028208     
  0.51410274419322166     
  0.59569930449243336     
  0.67155895484701833     
  0.74095112535495911     
  0.80320753148064483     
  0.85772861000027212     
  0.90398929312344334     
  0.94154406518302081     
  0.97003125319454397     
  0.98917650996478101     
  0.99879545620517241     
  0.99879545620517241     
  0.98917650996478101     
  0.97003125319454397     
  0.94154406518302081     
  0.90398929312344345     
  0.85772861000027212     
  0.80320753148064494     
  0.74095112535495899     
  0.67155895484701855     
  0.59569930449243347     
  0.51410274419322177     
  0.42755509343028208     
  0.33688985339222033     
  0.24298017990326412     
  0.14673047445536186     
   4.9067674327418015E-002
  -4.9067674327417682E-002
 -0.14673047445536153     
 -0.24298017990326379     
 -0.33688985339222011     
 -0.42755509343028175     
 -0.51410274419322155     
 -0.59569930449243325     
 -0.67155895484701844     
 -0.74095112535495888     
 -0.80320753148064505     
 -0.85772861000027201     
 -0.90398929312344312     
 -0.94154406518302081     
 -0.97003125319454397     
 -0.98917650996478079     
 -0.99879545620517229     
 -0.99879545620517229     
 -0.98917650996478079     
 -0.97003125319454397     
 -0.94154406518302092     
 -0.90398929312344334     
 -0.85772861000027223     
 -0.80320753148064528     
 -0.74095112535495911     
 -0.67155895484701866     
 -0.59569930449243325     
 -0.51410274419322188     
 -0.42755509343028253     
 -0.33688985339222000     
 -0.24298017990326412     
 -0.14673047445536233     
  -4.9067674327418043E-002
  -4.8595125800525774E-002
   4.9067674327417959E-002
  0.14531737977532008     
  0.23922705326427626     
  0.32989229330233827     
  0.41643994406527785     
  0.49803650436448954     
  0.57389615471907451     
  0.64328832522701529     
  0.70554473135270102     
  0.76006580987232830     
  0.80632649299549952     
  0.84388126505507699     
  0.87236845306660016     
  0.89151370983683720     
  0.90113265607722859     
  0.90113265607722859     
  0.89151370983683720     
  0.87236845306660016     
  0.84388126505507699     
  0.80632649299549963     
  0.76006580987232830     
  0.70554473135270113     
  0.64328832522701518     
  0.57389615471907474     
  0.49803650436448965     
  0.41643994406527796     
  0.32989229330233827     
  0.23922705326427654     
  0.14531737977532028     
   4.9067674327418015E-002
  -4.8595125800525829E-002
 -0.14673047445536150     
 -0.24439327458330537     
 -0.34064298003120763     
 -0.43455265352016392     
 -0.52521789355822557     
 -0.61176554432116537     
 -0.69336210462037706     
 -0.76922175497496226     
 -0.83861392548290270     
 -0.90087033160858887     
 -0.95539141012821582     
  -1.0016520932513868     
  -1.0392068653109645     
  -1.0676940533224877     
  -1.0868393100927245     
  -1.0964582563331160     
  -1.0964582563331160     
  -1.0868393100927245     
  -1.0676940533224877     
  -1.0392068653109645     
  -1.0016520932513870     
 -0.95539141012821605     
 -0.90087033160858909     
 -0.83861392548290292     
 -0.76922175497496248     
 -0.69336210462037706     
 -0.61176554432116570     
 -0.52521789355822635     
 -0.43455265352016381     
 -0.34064298003120796     
 -0.24439327458330615     
 -0.14673047445536189     
 -0.14484483124842804     
  -4.7182031120484302E-002
   4.9067674327417821E-002
  0.14297734781637400     
  0.23364258785443603     
  0.32019023861737561     
  0.40178679891658731     
  0.47764644927117228     
  0.54703861977911306     
  0.60929502590479878     
  0.66381610442442607     
  0.71007678754759729     
  0.74763155960717476     
  0.77611874761869792     
  0.79526400438893496     
  0.80488295062932635     
  0.80488295062932635     
  0.79526400438893496     
  0.77611874761869792     
  0.74763155960717476     
  0.71007678754759740     
  0.66381610442442607     
  0.60929502590479889     
  0.54703861977911294     
  0.47764644927117250     
  0.40178679891658742     
  0.32019023861737572     
  0.23364258785443598     
  0.14297734781637428     
   4.9067674327418015E-002
  -4.7182031120484247E-002
 -0.14484483124842809     
 -0.24298017990326379     
 -0.34064298003120763     
 -0.43689268547910987     
 -0.53080235896806616     
 -0.62146759900612791     
 -0.70801524976906760     
 -0.78961181006827930     
 -0.86547146042286449     
 -0.93486363093080493     
 -0.99712003705649110     
  -1.0516411155761181     
  -1.0979017986992892     
  -1.1354565707588669     
  -1.1639437587703900     
  -1.1830890155406268     
  -1.1927079617810183     
  -1.1927079617810183     
  -1.1830890155406268     
  -1.1639437587703900     
  -1.1354565707588669     
  -1.0979017986992894     
  -1.0516411155761183     
 -0.99712003705649133     
 -0.93486363093080516     
 -0.86547146042286471     
 -0.78961181006827930     
 -0.70801524976906793     
 -0.62146759900612858     
 -0.53080235896806605     
 -0.43689268547911020     
 -0.34064298003120841     
 -0.24298017990326412     
 -0.23875450473738433     
 -0.14109170460944057     
  -4.4841999161538443E-002
   4.9067674327417737E-002
  0.13973291436547977     
  0.22628056512841935     
  0.30787712542763102     
  0.38373677578221599     
  0.45312894629015676     
  0.51538535241584249     
  0.56990643093546978     
  0.61616711405864100     
  0.65372188611821846     
  0.68220907412974163     
  0.70135433089997867     
  0.71097327714037006     
  0.71097327714037006     
  0.70135433089997867     
  0.68220907412974163     
  0.65372188611821846     
  0.61616711405864111     
  0.56990643093546978     
  0.51538535241584260     
  0.45312894629015665     
  0.38373677578221621     
  0.30787712542763113     
  0.22628056512841946     
  0.13973291436547972     
   4.9067674327418015E-002
  -4.4841999161538248E-002
 -0.14109170460944051     
 -0.23875450473738433     
 -0.33688985339222000     
 -0.43455265352016392     
 -0.53080235896806616     
 -0.62471203245702245     
 -0.71537727249508409     
 -0.80192492325802389     
 -0.88352148355723559     
 -0.95938113391182067     
  -1.0287733044197611     
  -1.0910297105454474     
  -1.1455507890650742     
  -1.1918114721882453     
  -1.2293662442478230     
  -1.2578534322593462     
  -1.2769986890295832     
  -1.2866176352699747     
  -1.2866176352699747     
  -1.2769986890295832     
  -1.2578534322593462     
  -1.2293662442478233     
  -1.1918114721882456     
  -1.1455507890650745     
  -1.0910297105454474     
  -1.0287733044197613     
 -0.95938113391182112     
 -0.88352148355723559     
 -0.80192492325802422     
 -0.71537727249508487     
 -0.62471203245702234     
 -0.53080235896806649     
 -0.43455265352016470     
 -0.33688985339222044     
 -0.32941974477544600     
 -0.23175694464750227     
 -0.13550723919960014     
  -4.1597565710643963E-002
   4.9067674327418070E-002
  0.13561532509035765     
  0.21721188538956934     
  0.29307153574415434     
  0.36246370625209512     
  0.42472011237778085     
  0.47924119089740813     
  0.52550187402057935     
  0.56305664608015682     
  0.59154383409167999     
  0.61068909086191703     
  0.62030803710230831     
  0.62030803710230831     
  0.61068909086191703     
  0.59154383409167999     
  0.56305664608015682     
  0.52550187402057946     
  0.47924119089740813     
  0.42472011237778096     
  0.36246370625209501     
  0.29307153574415457     
  0.21721188538956945     
  0.13561532509035776     
   4.9067674327418015E-002
  -4.1597565710643686E-002
 -0.13550723919959995     
 -0.23175694464750221     
 -0.32941974477544600     
 -0.42755509343028175     
 -0.52521789355822557     
 -0.62146759900612791     
 -0.71537727249508409     
 -0.80604251253314585     
 -0.89259016329608565     
 -0.97418672359529734     
  -1.0500463739498824     
  -1.1194385444578228     
  -1.1816949505835090     
  -1.2362160291031359     
  -1.2824767122263070     
  -1.3200314842858847     
  -1.3485186722974078     
  -1.3676639290676449     
  -1.3772828753080364     
  -1.3772828753080364     
  -1.3676639290676449     
  -1.3485186722974078     
  -1.3200314842858849     
  -1.2824767122263072     
  -1.2362160291031361     
  -1.1816949505835093     
  -1.1194385444578230     
  -1.0500463739498826     
 -0.97418672359529734     
 -0.89259016329608587     
 -0.80604251253314663     
 -0.71537727249508409     
 -0.62146759900612825     
 -0.52521789355822646     
 -0.42755509343028208     
 -0.41596739553838580     
 -0.31830459541044198     
 -0.22205488996253989     
 -0.12814521647358371     
  -3.7479976435521672E-002
   4.9067674327417904E-002
  0.13066423462662960     
  0.20652388498121457     
  0.27591605548915532     
  0.33817246161484105     
  0.39269354013446833     
  0.43895422325763955     
  0.47650899531721702     
  0.50499618332874019     
  0.52414144009897723     
  0.53376038633936862     
  0.53376038633936862     
  0.52414144009897723     
  0.50499618332874019     
  0.47650899531721702     
  0.43895422325763966     
  0.39269354013446833     
  0.33817246161484116     
  0.27591605548915521     
  0.20652388498121479     
  0.13066423462662971     
   4.9067674327418015E-002
  -3.7479976435521728E-002
 -0.12814521647358343     
 -0.22205488996253972     
 -0.31830459541044198     
 -0.41596739553838580     
 -0.51410274419322155     
 -0.61176554432116537     
 -0.70801524976906760     
 -0.80192492325802389     
 -0.89259016329608565     
 -0.97913781405902534     
  -1.0607343743582369     
  -1.1365940247128221     
  -1.2059861952207627     
  -1.2682426013464487     
  -1.3227636798660758     
  -1.3690243629892469     
  -1.4065791350488246     
  -1.4350663230603475     
  -1.4542115798305846     
  -1.4638305260709761     
  -1.4638305260709761     
  -1.4542115798305846     
  -1.4350663230603475     
  -1.4065791350488246     
  -1.3690243629892469     
  -1.3227636798660758     
  -1.2682426013464490     
  -1.2059861952207627     
  -1.1365940247128223     
  -1.0607343743582369     
 -0.97913781405902556     
 -0.89259016329608631     
 -0.80192492325802378     
 -0.70801524976906793     
 -0.61176554432116614     
 -0.51410274419322188     
 -0.49756395583759749     
 -0.39990115570965368     
 -0.30365145026175155     
 -0.20974177677279540     
 -0.11907653673473337     
  -3.2528885971793792E-002
   4.9067674327417904E-002
  0.12492732468200288     
  0.19431949518994365     
  0.25657590131562935     
  0.31109697983525664     
  0.35735766295842786     
  0.39491243501800533     
  0.42339962302952849     
  0.44254487979976553     
  0.45216382604015692     
  0.45216382604015692     
  0.44254487979976553     
  0.42339962302952849     
  0.39491243501800533     
  0.35735766295842797     
  0.31109697983525664     
  0.25657590131562946     
  0.19431949518994354     
  0.12492732468200310     
   4.9067674327418015E-002
  -3.2528885971793681E-002
 -0.11907653673473342     
 -0.20974177677279512     
 -0.30365145026175144     
 -0.39990115570965368     
 -0.49756395583759749     
 -0.59569930449243325     
 -0.69336210462037706     
 -0.78961181006827930     
 -0.88352148355723559     
 -0.97418672359529734     
  -1.0607343743582369     
  -1.1423309346574486     
  -1.2181905850120338     
  -1.2875827555199744     
  -1.3498391616456604     
  -1.4043602401652875     
  -1.4506209232884586     
  -1.4881756953480363     
  -1.5166628833595592     
  -1.5358081401297963     
  -1.5454270863701878     
  -1.5454270863701878     
  -1.5358081401297963     
  -1.5166628833595592     
  -1.4881756953480363     
  -1.4506209232884586     
  -1.4043602401652875     
  -1.3498391616456606     
  -1.2875827555199744     
  -1.2181905850120340     
  -1.1423309346574486     
  -1.0607343743582371     
 -0.97418672359529801     
 -0.88352148355723548     
 -0.78961181006827963     
 -0.69336210462037784     
 -0.59569930449243358     
 -0.57342360619218258     
 -0.47576080606423876     
 -0.37951110061633664     
 -0.28560142712738046     
 -0.19493618708931845     
 -0.10838853632637888     
  -2.6791976027167180E-002
   4.9067674327417793E-002
  0.11845984483535857     
  0.18071625096104429     
  0.23523732948067158     
  0.28149801260384277     