# vtk DataFile Version 2.0
yz_mesh
ASCII
DATASET STRUCTURED_GRID
DIMENSIONS         1         7         7
POINTS        49 float
   0.0000000000000000       -3.1415926535897931        0.0000000000000000     
   0.0000000000000000       -2.0943951023931957        0.0000000000000000     
   0.0000000000000000       -1.0471975511965979        0.0000000000000000     
   0.0000000000000000        0.0000000000000000        0.0000000000000000     
   0.0000000000000000        1.0471975511965974        0.0000000000000000     
   0.0000000000000000        2.0943951023931948        0.0000000000000000     
   0.0000000000000000        3.1415926535897931        0.0000000000000000     
   0.0000000000000000       -3.1415926535897931        1.0471975511965976     
   0.0000000000000000       -2.0943951023931957        1.0471975511965976     
   0.0000000000000000       -1.0471975511965979        1.0471975511965976     
   0.0000000000000000        0.0000000000000000        1.0471975511965976     
   0.0000000000000000        1.0471975511965974        1.0471975511965976     
   0.0000000000000000        2.0943951023931948        1.0471975511965976     
   0.0000000000000000        3.1415926535897931        1.0471975511965976     
   0.0000000000000000       -3.1415926535897931        2.0943951023931953     
   0.0000000000000000       -2.0943951023931957        2.0943951023931953     
   0.0000000000000000       -1.0471975511965979        2.0943951023931953     
   0.0000000000000000        0.0000000000000000        2.0943951023931953     
   0.0000000000000000        1.0471975511965974        2.0943951023931953     
   0.0000000000000000        2.0943951023931948        2.0943951023931953     
   0.0000000000000000        3.1415926535897931        2.0943951023931953     
   0.0000000000000000       -3.1415926535897931        3.1415926535897931     
   0.0000000000000000       -2.0943951023931957        3.1415926535897931     
   0.0000000000000000       -1.0471975511965979        3.1415926535897931     
   0.0000000000000000        0.0000000000000000        3.1415926535897931     
   0.0000000000000000        1.0471975511965974        3.1415926535897931     
   0.0000000000000000        2.0943951023931948        3.1415926535897931     
   0.0000000000000000        3.1415926535897931        3.1415926535897931     
   0.0000000000000000       -3.1415926535897931        4.1887902047863905     
   0.0000000000000000       -2.0943951023931957        4.1887902047863905     
   0.0000000000000000       -1.0471975511965979        4.1887902047863905     
   0.0000000000000000        0.0000000000000000        4.1887902047863905     
   0.0000000000000000        1.0471975511965974        4.1887902047863905     
   0.0000000000000000        2.0943951023931948        4.1887902047863905     
   0.0000000000000000        3.1415926535897931        4.1887902047863905     
   0.0000000000000000       -3.1415926535897931        5.2359877559829879     
   0.0000000000000000       -2.0943951023931957        5.2359877559829879     
   0.0000000000000000       -1.0471975511965979        5.2359877559829879     
   0.0000000000000000        0.0000000000000000        5.2359877559829879     
   0.0000000000000000        1.0471975511965974        5.2359877559829879     
   0.0000000000000000        2.0943951023931948        5.2359877559829879     
   0.0000000000000000        3.1415926535897931        5.2359877559829879     
   0.0000000000000000       -3.1415926535897931        6.2831853071795862     
   0.0000000000000000       -2.0943951023931957        6.2831853071795862     
   0.0000000000000000       -1.0471975511965979        6.2831853071795862     
   0.0000000000000000        0.0000000000000000        6.2831853071795862     
   0.0000000000000000        1.0471975511965974        6.2831853071795862     
   0.0000000000000000        2.0943951023931948        6.2831853071795862     
   0.0000000000000000        3.1415926535897931        6.2831853071795862     
CELL_DATA        36
SCALARS p float        36
LOOKUP_TABLE default
  0.49999999999999994     
  -5.5511151231257827E-017
  0.49999999999999967     
   1.5000000000000002     
   2.0000000000000000     
   1.5000000000000002     
   1.0000000000000000     
  0.50000000000000000     
  0.99999999999999978     
   2.0000000000000000     
   2.5000000000000000     
   2.0000000000000000     
  0.50000000000000033     
   3.3306690738754696E-016
  0.50000000000000000     
   1.5000000000000004     
   2.0000000000000004     
   1.5000000000000004     
 -0.49999999999999972     
 -0.99999999999999978     
 -0.50000000000000000     
  0.50000000000000044     
   1.0000000000000002     
  0.50000000000000044     
  -1.0000000000000000     
  -1.5000000000000000     
  -1.0000000000000002     
   2.2204460492503131E-016
  0.50000000000000000     
   2.2204460492503131E-016
 -0.50000000000000044     
  -1.0000000000000004     
 -0.50000000000000067     
  0.49999999999999978     
  0.99999999999999956     
  0.49999999999999978     
CELL_DATA        36
SCALARS p float        36
LOOKUP_TABLE default
  0.49999999999999994     
  -5.5511151231257827E-017
  0.49999999999999967     
   1.5000000000000002     
   2.0000000000000000     
   1.5000000000000002     
   1.0000000000000000     
  0.50000000000000000     
  0.99999999999999978     
   2.0000000000000000     
   2.5000000000000000     
   2.0000000000000000     
  0.50000000000000033     
   3.3306690738754696E-016
  0.50000000000000000     
   1.5000000000000004     
   2.0000000000000004     
   1.5000000000000004     
 -0.49999999999999972     
 -0.99999999999999978     
 -0.50000000000000000     
  0.50000000000000044     
   1.0000000000000002     
  0.50000000000000044     
  -1.0000000000000000     
  -1.5000000000000000     
  -1.0000000000000002     
   2.2204460492503131E-016
  0.50000000000000000     
   2.2204460492503131E-016
 -0.50000000000000044     
  -1.0000000000000004     
 -0.50000000000000067     
  0.49999999999999978     
  0.99999999999999956     
  0.49999999999999978     
CELL_DATA        36
SCALARS p float        36
LOOKUP_TABLE default
  0.49999999999999994     
  -5.5511151231257827E-017
  0.49999999999999967     
   1.5000000000000002     
   2.0000000000000000     
   1.5000000000000002     
   1.0000000000000000     
  0.50000000000000000     
  0.99999999999999978     
   2.0000000000000000     
   2.5000000000000000     
   2.0000000000000000     
  0.50000000000000033     
   3.3306690738754696E-016
  0.50000000000000000     
   1.5000000000000004     
   2.0000000000000004     
   1.5000000000000004     
 -0.49999999999999972     
 -0.99999999999999978     
 -0.50000000000000000     
  0.50000000000000044     
   1.0000000000000002     
  0.50000000000000044     
  -1.0000000000000000     
  -1.5000000000000000     
  -1.0000000000000002     
   2.2204460492503131E-016
  0.50000000000000000     
   2.2204460492503131E-016
 -0.50000000000000044     
  -1.0000000000000004     
 -0.50000000000000067     
  0.49999999999999978     
  0.99999999999999956     
  0.49999999999999978     
CELL_DATA        36
SCALARS p float        36
LOOKUP_TABLE default
  0.49999999999999994     
  -5.5511151231257827E-017
  0.49999999999999967     
   1.5000000000000002     
   2.0000000000000000     
   1.5000000000000002     
   1.0000000000000000     
  0.50000000000000000     
  0.99999999999999978     
   2.0000000000000000     
   2.5000000000000000     
   2.0000000000000000     
  0.50000000000000033     
   3.3306690738754696E-016
  0.50000000000000000     
   1.5000000000000004     
   2.0000000000000004     
   1.5000000000000004     
 -0.49999999999999972     
 -0.99999999999999978     
 -0.50000000000000000     
  0.50000000000000044     
   1.0000000000000002     
  0.50000000000000044     
  -1.0000000000000000     
  -1.5000000000000000     
  -1.0000000000000002     
   2.2204460492503131E-016
  0.50000000000000000     
   2.2204460492503131E-016
 -0.50000000000000044     
  -1.0000000000000004     
 -0.50000000000000067     
  0.49999999999999978     
  0.99999999999999956     
  0.49999999999999978     
CELL_DATA        36
SCALARS p float        36
LOOKUP_TABLE default
  0.49999999999999994     
  -5.5511151231257827E-017
  0.49999999999999967     
   1.5000000000000002     
   2.0000000000000000     
   1.5000000000000002     
   1.0000000000000000     
  0.50000000000000000     
  0.99999999999999978     
   2.0000000000000000     
   2.5000000000000000     
   2.0000000000000000     
  0.50000000000000033     
   3.3306690738754696E-016
  0.50000000000000000     
   1.5000000000000004     
   2.0000000000000004     
   1.5000000000000004     
 -0.49999999999999972     
 -0.99999999999999978     
 -0.50000000000000000     
  0.50000000000000044     
   1.0000000000000002     
  0.50000000000000044     
  -1.0000000000000000     
  -1.5000000000000000     
  -1.0000000000000002     
   2.2204460492503131E-016
  0.50000000000000000     
   2.2204460492503131E-016
 -0.50000000000000044     
  -1.0000000000000004     
 -0.50000000000000067     
  0.49999999999999978     
  0.99999999999999956     
  0.49999999999999978     
CELL_DATA        36
SCALARS p float        36
LOOKUP_TABLE default
  0.49999999999999994     
  -5.5511151231257827E-017
  0.49999999999999967     
   1.5000000000000002     
   2.0000000000000000     
   1.5000000000000002     
   1.0000000000000000     
  0.50000000000000000     
  0.99999999999999978     
   2.0000000000000000     
   2.5000000000000000     
   2.0000000000000000     
  0.50000000000000033     
   3.3306690738754696E-016
  0.50000000000000000     
   1.5000000000000004     
   2.0000000000000004     
   1.5000000000000004     
 -0.49999999999999972     
 -0.99999999999999978     
 -0.50000000000000000     
  0.50000000000000044     
   1.0000000000000002     
  0.50000000000000044     
  -1.0000000000000000     
  -1.5000000000000000     
  -1.0000000000000002     
   2.2204460492503131E-016
  0.50000000000000000     
   2.2204460492503131E-016
 -0.50000000000000044     
  -1.0000000000000004     
 -0.50000000000000067     
  0.49999999999999978     
  0.99999999999999956     
  0.49999999999999978     
CELL_DATA        36
SCALARS p float        36
LOOKUP_TABLE default
  0.49999999999999994     
  -5.5511151231257827E-017
  0.49999999999999967     
   1.5000000000000002     
   2.0000000000000000     
   1.5000000000000002     
   1.0000000000000000     
  0.50000000000000000     
  0.99999999999999978     
   2.0000000000000000     
   2.5000000000000000     
   2.0000000000000000     
  0.50000000000000033     
   3.3306690738754696E-016
  0.50000000000000000     
   1.5000000000000004     
   2.0000000000000004     
   1.5000000000000004     
 -0.49999999999999972     
 -0.99999999999999978     
 -0.50000000000000000     
  0.50000000000000044     
   1.0000000000000002     
  0.50000000000000044     
  -1.0000000000000000     
  -1.5000000000000000     
  -1.0000000000000002     
   2.2204460492503131E-016
  0.50000000000000000     
   2.2204460492503131E-016
 -0.50000000000000044     
  -1.0000000000000004     
 -0.50000000000000067     
  0.49999999999999978     
  0.99999999999999956     
  0.49999999999999978     
CELL_DATA        36
SCALARS p float        36
LOOKUP_TABLE default
  0.49999999999999994     
  -5.5511151231257827E-017
  0.49999999999999967     
   1.5000000000000002     
   2.0000000000000000     
   1.5000000000000002     
   1.0000000000000000     
  0.50000000000000000     
  0.99999999999999978     
   2.0000000000000000     
   2.5000000000000000     
   2.0000000000000000     
  0.50000000000000033     
   3.3306690738754696E-016
  0.50000000000000000     
   1.5000000000000004     
   2.0000000000000004     
   1.5000000000000004     
 -0.49999999999999972     
 -0.99999999999999978     
 -0.50000000000000000     
  0.50000000000000044     
   1.0000000000000002     
  0.50000000000000044     
  -1.0000000000000000     
  -1.5000000000000000     
  -1.0000000000000002     
   2.2204460492503131E-016
  0.50000000000000000     
   2.2204460492503131E-016
 -0.50000000000000044     
  -1.0000000000000004     
 -0.50000000000000067     
  0.49999999999999978     
  0.99999999999999956     
  0.49999999999999978     
CELL_DATA        36
SCALARS p float        36
LOOKUP_TABLE default
  0.49999999999999994     
  -5.5511151231257827E-017
  0.49999999999999967     
   1.5000000000000002     
   2.0000000000000000     
   1.5000000000000002     
   1.0000000000000000     
  0.50000000000000000     
  0.99999999999999978     
   2.0000000000000000     
   2.5000000000000000     
   2.0000000000000000     
  0.50000000000000033     
   3.3306690738754696E-016
  0.50000000000000000     
   1.5000000000000004     
   2.0000000000000004     
   1.5000000000000004     
 -0.49999999999999972     
 -0.99999999999999978     
 -0.50000000000000000     
  0.50000000000000044     
   1.0000000000000002     
  0.50000000000000044     
  -1.0000000000000000     
  -1.5000000000000000     
  -1.0000000000000002     
   2.2204460492503131E-016
  0.50000000000000000     
   2.2204460492503131E-016
 -0.50000000000000044     
  -1.0000000000000004     
 -0.50000000000000067     
  0.49999999999999978     
  0.99999999999999956     
  0.49999999999999978     
CELL_DATA        36
SCALARS p float        36
LOOKUP_TABLE default
  0.49999999999999994     
  -5.5511151231257827E-017
  0.49999999999999967     
   1.5000000000000002     
   2.0000000000000000     
   1.5000000000000002     
   1.0000000000000000     
  0.50000000000000000     
  0.99999999999999978     
   2.0000000000000000     
   2.5000000000000000     
   2.0000000000000000     
  0.50000000000000033     
   3.3306690738754696E-016
  0.50000000000000000     
   1.5000000000000004     
   2.0000000000000004     
   1.5000000000000004     
 -0.49999999999999972     
 -0.99999999999999978     
 -0.50000000000000000     
  0.50000000000000044     
   1.0000000000000002     
  0.50000000000000044     
  -1.0000000000000000     
  -1.5000000000000000     
  -1.0000000000000002     
   2.2204460492503131E-016
  0.50000000000000000     
   2.2204460492503131E-016
 -0.50000000000000044     
  -1.0000000000000004     
 -0.50000000000000067     
  0.49999999999999978     
  0.99999999999999956     
  0.49999999999999978     
CELL_DATA        36
SCALARS p float        36
LOOKUP_TABLE default
  0.49999999999999994     
  -5.5511151231257827E-017
  0.49999999999999967     
   1.5000000000000002     
   2.0000000000000000     
   1.5000000000000002     
   1.0000000000000000     
  0.50000000000000000     
  0.99999999999999978     
   2.0000000000000000     
   2.5000000000000000     
   2.0000000000000000     
  0.50000000000000033     
   3.3306690738754696E-016
  0.50000000000000000     
   1.5000000000000004     
   2.0000000000000004     
   1.5000000000000004     
 -0.49999999999999972     
 -0.99999999999999978     
 -0.50000000000000000     
  0.50000000000000044     
   1.0000000000000002     
  0.50000000000000044     
  -1.0000000000000000     
  -1.5000000000000000     
  -1.0000000000000002     
   2.2204460492503131E-016
  0.50000000000000000     
   2.2204460492503131E-016
 -0.50000000000000044     
  -1.0000000000000004     
 -0.50000000000000067     
  0.49999999999999978     
  0.99999999999999956     
  0.49999999999999978     
CELL_DATA        36
SCALARS p float        36
LOOKUP_TABLE default
  0.49999999999999994     
  -5.5511151231257827E-017
  0.49999999999999967     
   1.5000000000000002     
   2.0000000000000000     
   1.5000000000000002     
   1.0000000000000000     
  0.50000000000000000     
  0.99999999999999978     
   2.0000000000000000     
   2.5000000000000000     
   2.0000000000000000     
  0.50000000000000033     
   3.3306690738754696E-016
  0.50000000000000000     
   1.5000000000000004     
   2.0000000000000004     
   1.5000000000000004     
 -0.49999999999999972     
 -0.99999999999999978     
 -0.50000000000000000     
  0.50000000000000044     
   1.0000000000000002     
  0.50000000000000044     
  -1.0000000000000000     
  -1.5000000000000000     
  -1.0000000000000002     
   2.2204460492503131E-016
  0.50000000000000000     
   2.2204460492503131E-016
 -0.50000000000000044     
  -1.0000000000000004     
 -0.50000000000000067     
  0.49999999999999978     
  0.99999999999999956     
  0.49999999999999978     
CELL_DATA        36
SCALARS p float        36
LOOKUP_TABLE default
  0.49999999999999994     
  -5.5511151231257827E-017
  0.49999999999999967     
   1.5000000000000002     
   2.0000000000000000     
   1.5000000000000002     
   1.0000000000000000     
  0.50000000000000000     
  0.99999999999999978     
   2.0000000000000000     
   2.5000000000000000     
   2.0000000000000000     
  0.50000000000000033     
   3.3306690738754696E-016
  0.50000000000000000     
   1.5000000000000004     
   2.0000000000000004     
   1.5000000000000004     
 -0.49999999999999972     
 -0.99999999999999978     
 -0.50000000000000000     
  0.50000000000000044     
   1.0000000000000002     
  0.50000000000000044     
  -1.0000000000000000     
  -1.5000000000000000     
  -1.0000000000000002     
   2.2204460492503131E-016
  0.50000000000000000     
   2.2204460492503131E-016
 -0.50000000000000044     
  -1.0000000000000004     
 -0.50000000000000067     
  0.49999999999999978     
  0.99999999999999956     
  0.49999999999999978     
CELL_DATA      4096
SCALARS p float      4096
LOOKUP_TABLE default
   4.9067674327418064E-002
  -4.8595125800525774E-002
 -0.14484483124842804     
 -0.23875450473738433     
 -0.32941974477544600     
 -0.41596739553838580     
 -0.49756395583759749     
 -0.57342360619218258     
 -0.64281577670012302     
 -0.70507218282580897     
 -0.75959326134543614     
 -0.80585394446860725     
 -0.84340871652818483     
 -0.87189590453970800     
 -0.89104116130994504     
 -0.90066010755033643     
 -0.90066010755033643     
 -0.89104116130994504     
 -0.87189590453970800     
 -0.84340871652818483     
 -0.80585394446860736     
 -0.75959326134543614     
 -0.70507218282580886     
 -0.64281577670012302     
 -0.57342360619218258     
 -0.49756395583759738     
 -0.41596739553838569     
 -0.32941974477544589     
 -0.23875450473738422     
 -0.14484483124842790     
  -4.8595125800525663E-002
   4.9067674327418181E-002
  0.14720302298225388     
  0.24486582311019772     
  0.34111552855809990     
  0.43502520204705619     
  0.52569044208511795     
  0.61223809284805764     
  0.69383465314726933     
  0.76969430350185453     
  0.83908647400979497     
  0.90134288013548114     
  0.95586395865510809     
   1.0021246417782792     
   1.0396794138378569     
   1.0681666018493801     
   1.0873118586196171     
   1.0969308048600086     
   1.0969308048600086     
   1.0873118586196171     
   1.0681666018493801     
   1.0396794138378569     
   1.0021246417782792     
  0.95586395865510809     
  0.90134288013548114     
  0.83908647400979497     
  0.76969430350185453     
  0.69383465314726911     
  0.61223809284805775     
  0.52569044208511839     
  0.43502520204705586     
  0.34111552855810012     
  0.24486582311019828     
  0.14720302298225399     
  0.14673047445536180     
   4.9067674327417959E-002
  -4.7182031120484302E-002
 -0.14109170460944059     
 -0.23175694464750224     
 -0.31830459541044204     
 -0.39990115570965373     
 -0.47576080606423882     
 -0.54515297657217920     
 -0.60740938269786526     
 -0.66193046121749233     
 -0.70819114434066344     
 -0.74574591640024113     
 -0.77423310441176429     
 -0.79337836118200133     
 -0.80299730742239261     
 -0.80299730742239261     
 -0.79337836118200133     
 -0.77423310441176429     
 -0.74574591640024113     
 -0.70819114434066366     
 -0.66193046121749233     
 -0.60740938269786504     
 -0.54515297657217920     
 -0.47576080606423882     
 -0.39990115570965362     
 -0.31830459541044193     
 -0.23175694464750213     
 -0.14109170460944048     
  -4.7182031120484164E-002
   4.9067674327418070E-002
  0.14673047445536191     
  0.24486582311019761     
  0.34252862323814148     
  0.43877832868604366     
  0.53268800217500001     
  0.62335324221306165     
  0.70990089297600134     
  0.79149745327521304     
  0.86735710362979823     
  0.93674927413773879     
  0.99900568026342484     
   1.0535267587830519     
   1.0997874419062230     
   1.1373422139658005     
   1.1658294019773237     
   1.1849746587475607     
   1.1945936049879522     
   1.1945936049879522     
   1.1849746587475607     
   1.1658294019773237     
   1.1373422139658007     
   1.0997874419062230     
   1.0535267587830519     
  0.99900568026342484     
  0.93674927413773879     
  0.86735710362979823     
  0.79149745327521281     
  0.70990089297600156     
  0.62335324221306210     
  0.53268800217499956     
  0.43877832868604383     
  0.34252862323814204     
  0.24486582311019772     
  0.24298017990326393     
  0.14531737977532008     
   4.9067674327417821E-002
  -4.4841999161538471E-002
 -0.13550723919960012     
 -0.22205488996253991     
 -0.30365145026175161     
 -0.37951110061633669     
 -0.44890327112427714     
 -0.51115967724996314     
 -0.56568075576959020     
 -0.61194143889276131     
 -0.64949621095233900     
 -0.67798339896386217     
 -0.69712865573409921     
 -0.70674760197449049     
 -0.70674760197449049     
 -0.69712865573409921     
 -0.67798339896386217     
 -0.64949621095233900     
 -0.61194143889276154     
 -0.56568075576959020     
 -0.51115967724996292     
 -0.44890327112427714     
 -0.37951110061633669     
 -0.30365145026175150     
 -0.22205488996253980     
 -0.13550723919960000     
  -4.4841999161538360E-002
   4.9067674327417959E-002
  0.14531737977532019     
  0.24298017990326404     
  0.34111552855809973     
  0.43877832868604361     
  0.53502803413394573     
  0.62893770762290213     
  0.71960294766096378     
  0.80615059842390346     
  0.88774715872311516     
  0.96360680907770035     
   1.0329989795856409     
   1.0952553857113270     
   1.1497764642309540     
   1.1960371473541251     
   1.2335919194137026     
   1.2620791074252258     
   1.2812243641954628     
   1.2908433104358543     
   1.2908433104358543     
   1.2812243641954628     
   1.2620791074252258     
   1.2335919194137028     
   1.1960371473541251     
   1.1497764642309540     
   1.0952553857113270     
   1.0329989795856409     
  0.96360680907770035     
  0.88774715872311494     
  0.80615059842390369     
  0.71960294766096422     
  0.62893770762290169     
  0.53502803413394595     
  0.43877832868604416     
  0.34111552855809985     
  0.33688985339222011     
  0.23922705326427626     
  0.14297734781637400     
   4.9067674327417710E-002
  -4.1597565710643936E-002
 -0.12814521647358373     
 -0.20974177677279543     
 -0.28560142712738051     
 -0.35499359763532096     
 -0.41725000376100690     
 -0.47177108228063408     
 -0.51803176540380513     
 -0.55558653746338282     
 -0.58407372547490599     
 -0.60321898224514303     
 -0.61283792848553431     
 -0.61283792848553431     
 -0.60321898224514303     
 -0.58407372547490599     
 -0.55558653746338282     
 -0.51803176540380536     
 -0.47177108228063408     
 -0.41725000376100679     
 -0.35499359763532096     
 -0.28560142712738051     
 -0.20974177677279532     
 -0.12814521647358362     
  -4.1597565710643825E-002
   4.9067674327417821E-002
  0.14297734781637414     
  0.23922705326427637     
  0.33688985339222022     
  0.43502520204705591     
  0.53268800217499979     
  0.62893770762290191     
  0.72284738111185831     
  0.81351262114991996     
  0.90006027191285964     
  0.98165683221207134     
   1.0575164825666565     
   1.1269086530745971     
   1.1891650592002831     
   1.2436861377199102     
   1.2899468208430813     
   1.3275015929026588     
   1.3559887809141820     
   1.3751340376844190     
   1.3847529839248105     
   1.3847529839248105     
   1.3751340376844190     
   1.3559887809141820     
   1.3275015929026590     
   1.2899468208430813     
   1.2436861377199102     
   1.1891650592002831     
   1.1269086530745971     
   1.0575164825666565     
  0.98165683221207112     
  0.90006027191285987     
  0.81351262114992040     
  0.72284738111185787     
  0.62893770762290213     
  0.53268800217500034     
  0.43502520204705603     
  0.42755509343028214     
  0.32989229330233827     
  0.23364258785443603     
  0.13973291436547974     
   4.9067674327418098E-002
  -3.7479976435521700E-002
 -0.11907653673473340     
 -0.19493618708931848     
 -0.26432835759725892     
 -0.32658476372294487     
 -0.38110584224257205     
 -0.42736652536574316     
 -0.46492129742532073     
 -0.49340848543684390     
 -0.51255374220708094     
 -0.52217268844747233     
 -0.52217268844747233     
 -0.51255374220708094     
 -0.49340848543684390     
 -0.46492129742532073     
 -0.42736652536574327     
 -0.38110584224257205     
 -0.32658476372294476     
 -0.26432835759725892     
 -0.19493618708931848     
 -0.11907653673473328     
  -3.7479976435521589E-002
   4.9067674327418209E-002
  0.13973291436547985     
  0.23364258785443617     
  0.32989229330233838     
  0.42755509343028225     
  0.52569044208511795     
  0.62335324221306176     
  0.71960294766096400     
  0.81351262114992029     
  0.90417786118798205     
  0.99072551195092173     
   1.0723220722501334     
   1.1481817226047186     
   1.2175738931126592     
   1.2798302992383452     
   1.3343513777579723     
   1.3806120608811434     
   1.4181668329407209     
   1.4466540209522440     
   1.4657992777224811     
   1.4754182239628726     
   1.4754182239628726     
   1.4657992777224811     
   1.4466540209522440     
   1.4181668329407211     
   1.3806120608811434     
   1.3343513777579723     
   1.2798302992383452     
   1.2175738931126592     
   1.1481817226047186     
   1.0723220722501332     
  0.99072551195092184     
  0.90417786118798249     
  0.81351262114991996     
  0.71960294766096422     
  0.62335324221306232     
  0.52569044208511806     
  0.51410274419322166     
  0.41643994406527785     
  0.32019023861737561     
  0.22628056512841932     
  0.13561532509035767     
   4.9067674327417876E-002
  -3.2528885971793819E-002
 -0.10838853632637890     
 -0.17778070683431935     
 -0.24003711296000529     
 -0.29455819147963247     
 -0.34081887460280358     
 -0.37837364666238116     
 -0.40686083467390433     
 -0.42600609144414137     
 -0.43562503768453276     
 -0.43562503768453276     
 -0.42600609144414137     
 -0.40686083467390433     
 -0.37837364666238116     
 -0.34081887460280369     
 -0.29455819147963247     
 -0.24003711296000518     
 -0.17778070683431935     
 -0.10838853632637890     
  -3.2528885971793708E-002
   4.9067674327417987E-002
  0.13561532509035779     
  0.22628056512841943     
  0.32019023861737572     
  0.41643994406527796     
  0.51410274419322177     
  0.61223809284805752     
  0.70990089297600134     
  0.80615059842390357     
  0.90006027191285987     
  0.99072551195092162     
   1.0772731627138614     
   1.1588697230130731     
   1.2347293733676583     
   1.3041215438755986     
   1.3663779500012847     
   1.4208990285209118     
   1.4671597116440829     
   1.5047144837036606     
   1.5332016717151835     
   1.5523469284854206     
   1.5619658747258121     
   1.5619658747258121     
   1.5523469284854206     
   1.5332016717151835     
   1.5047144837036606     
   1.4671597116440829     
   1.4208990285209118     
   1.3663779500012847     
   1.3041215438755986     
   1.2347293733676583     
   1.1588697230130727     
   1.0772731627138614     
  0.99072551195092207     
  0.90006027191285953     
  0.80615059842390369     
  0.70990089297600190     
  0.61223809284805764     
  0.59569930449243336     
  0.49803650436448954     
  0.40178679891658731     
  0.30787712542763102     
  0.21721188538956937     
  0.13066423462662957     
   4.9067674327417876E-002
  -2.6791976027167208E-002
  -9.6184146535107651E-002
 -0.15844055266079360     
 -0.21296163118042077     
 -0.25922231430359188     
 -0.29677708636316946     
 -0.32526427437469263     
 -0.34440953114492967     
 -0.35402847738532106     
 -0.35402847738532106     
 -0.34440953114492967     
 -0.32526427437469263     
 -0.29677708636316946     
 -0.25922231430359199     
 -0.21296163118042077     
 -0.15844055266079349     
  -9.6184146535107651E-002
  -2.6791976027167208E-002
   4.9067674327417987E-002
  0.13066423462662968     
  0.21721188538956948     
  0.30787712542763113     
  0.40178679891658742     
  0.49803650436448965     
  0.59569930449243347     
  0.69383465314726922     
  0.79149745327521304     
  0.88774715872311527     
  0.98165683221207156     
   1.0723220722501332     
   1.1588697230130731     
   1.2404662833122848     
   1.3163259336668700     
   1.3857181041748103     
   1.4479745103004964     
   1.5024955888201235     
   1.5487562719432946     
   1.5863110440028723     
   1.6147982320143952     
   1.6339434887846322     
   1.6435624350250237     
   1.6435624350250237     
   1.6339434887846322     
   1.6147982320143952     
   1.5863110440028723     
   1.5487562719432946     
   1.5024955888201235     
   1.4479745103004964     
   1.3857181041748103     
   1.3163259336668700     
   1.2404662833122844     
   1.1588697230130731     
   1.0723220722501337     
  0.98165683221207123     
  0.88774715872311538     
  0.79149745327521359     
  0.69383465314726933     
  0.67155895484701833     
  0.57389615471907451     
  0.47764644927117228     
  0.38373677578221599     
  0.29307153574415434     
  0.20652388498121454     
  0.12492732468200285     
   4.9067674327417765E-002
  -2.0324496180522678E-002
  -8.2580902306208626E-002
 -0.13710198082583580     
 -0.18336266394900691     