# vtk DataFile Version 2.0
yz_mesh
ASCII
DATASET STRUCTURED_GRID
DIMENSIONS         1         5         5
POINTS        25 float
   0.0000000000000000       -1.0000000000000000        0.0000000000000000     
   0.0000000000000000      -0.59809326195229373        0.0000000000000000     
   0.0000000000000000        0.0000000000000000        0.0000000000000000     
   0.0000000000000000       0.59809326195229384        0.0000000000000000     
   0.0000000000000000        1.0000000000000004        0.0000000000000000     
   0.0000000000000000       -1.0000000000000000       0.75000000000000000     
   0.0000000000000000      -0.59809326195229373       0.75000000000000000     
   0.0000000000000000        0.0000000000000000       0.75000000000000000     
   0.0000000000000000       0.59809326195229384       0.75000000000000000     
   0.0000000000000000        1.0000000000000004       0.75000000000000000     
   0.0000000000000000       -1.0000000000000000        1.5000000000000000     
   0.0000000000000000      -0.59809326195229373        1.5000000000000000     
   0.0000000000000000        0.0000000000000000        1.5000000000000000     
   0.0000000000000000       0.59809326195229384        1.5000000000000000     
   0.0000000000000000        1.0000000000000004        1.5000000000000000     
   0.0000000000000000       -1.0000000000000000        2.2500000000000000     
   0.0000000000000000      -0.59809326195229373        2.2500000000000000     
   0.0000000000000000        0.0000000000000000        2.2500000000000000     
   0.0000000000000000       0.59809326195229384        2.2500000000000000     
   0.0000000000000000        1.0000000000000004        2.2500000000000000     
   0.0000000000000000       -1.0000000000000000        3.0000000000000000     
   0.0000000000000000      -0.59809326195229373        3.0000000000000000     
   0.0000000000000000        0.0000000000000000        3.0000000000000000     
   0.0000000000000000       0.59809326195229384        3.0000000000000000     
   0.0000000000000000        1.0000000000000004        3.0000000000000000     
CELL_DATA        16
SCALARS u float        16
LOOKUP_TABLE default
  0.58124763469016627     
   1.9051735441307072     
   1.0884097117621336     
  0.54923523952208519     
  -6.7983516884915662E-002
   1.6378564464574450     
   1.1168068830808795     
  0.65053599893574221     
   1.0784098076796667     
  0.96677101107038599     
   1.0276364883024376     
  0.86930647104341663     
  0.79803306883260661     
   1.6136367761078563     
  0.83085949320993657     
  0.36742225225811609     
SCALARS v float        16
LOOKUP_TABLE default
   0.0000000000000000     
 -0.54210826340351226     
   4.1800617873292187E-002
 -0.31465201764991929     
   0.0000000000000000     
 -0.14555795927310408     
  0.42231806913838404     
 -0.36074238926423563     
   0.0000000000000000     
  0.22413830522321865     
  0.58378213412943192     
 -0.44071175891699421     
   0.0000000000000000     
   2.3251489256984968E-002
  0.22579568335969136     
  0.23632862602388832     
SCALARS w float        16
LOOKUP_TABLE default
  0.12720951506843486     
  0.35876448686027856     
   8.1330261468641973E-002
  0.38880681804871503     
 -0.57409378741110673     
  -6.8967515485066938E-002
  0.36866740594734448     
 -0.59209179568711434     
   2.8860500608934456E-002
  0.55364999325044306     
  0.26361029127137603     
  -1.7555510229715843E-002
  0.51453829603991674     
  -7.4373586413713610E-002
 -0.19894965153483421     
 -0.10712773718618686     
SCALARS p float        16
LOOKUP_TABLE default
   0.0000000000000000     
   0.0000000000000000     
   0.0000000000000000     
   0.0000000000000000     
   0.0000000000000000     
   0.0000000000000000     
   0.0000000000000000     
   0.0000000000000000     
   0.0000000000000000     
   0.0000000000000000     
   0.0000000000000000     
   0.0000000000000000     
   0.0000000000000000     
   0.0000000000000000     
   0.0000000000000000     
   0.0000000000000000     
