# vtk DataFile Version 2.0
xy_mesh
ASCII
DATASET STRUCTURED_GRID
DIMENSIONS         9         9         1
POINTS        81 float
   0.0000000000000000       -3.1415926535897931        0.0000000000000000     
  0.78539816339744828       -3.1415926535897931        0.0000000000000000     
   1.5707963267948966       -3.1415926535897931        0.0000000000000000     
   2.3561944901923448       -3.1415926535897931        0.0000000000000000     
   3.1415926535897931       -3.1415926535897931        0.0000000000000000     
   3.9269908169872414       -3.1415926535897931        0.0000000000000000     
   4.7123889803846897       -3.1415926535897931        0.0000000000000000     
   5.4977871437821380       -3.1415926535897931        0.0000000000000000     
   6.2831853071795862       -3.1415926535897931        0.0000000000000000     
   0.0000000000000000       -2.3561944901923448        0.0000000000000000     
  0.78539816339744828       -2.3561944901923448        0.0000000000000000     
   1.5707963267948966       -2.3561944901923448        0.0000000000000000     
   2.3561944901923448       -2.3561944901923448        0.0000000000000000     
   3.1415926535897931       -2.3561944901923448        0.0000000000000000     
   3.9269908169872414       -2.3561944901923448        0.0000000000000000     
   4.7123889803846897       -2.3561944901923448        0.0000000000000000     
   5.4977871437821380       -2.3561944901923448        0.0000000000000000     
   6.2831853071795862       -2.3561944901923448        0.0000000000000000     
   0.0000000000000000       -1.5707963267948966        0.0000000000000000     
  0.78539816339744828       -1.5707963267948966        0.0000000000000000     
   1.5707963267948966       -1.5707963267948966        0.0000000000000000     
   2.3561944901923448       -1.5707963267948966        0.0000000000000000     
   3.1415926535897931       -1.5707963267948966        0.0000000000000000     
   3.9269908169872414       -1.5707963267948966        0.0000000000000000     
   4.7123889803846897       -1.5707963267948966        0.0000000000000000     
   5.4977871437821380       -1.5707963267948966        0.0000000000000000     
   6.2831853071795862       -1.5707963267948966        0.0000000000000000     
   0.0000000000000000      -0.78539816339744828        0.0000000000000000     
  0.78539816339744828      -0.78539816339744828        0.0000000000000000     
   1.5707963267948966      -0.78539816339744828        0.0000000000000000     
   2.3561944901923448      -0.78539816339744828        0.0000000000000000     
   3.1415926535897931      -0.78539816339744828        0.0000000000000000     
   3.9269908169872414      -0.78539816339744828        0.0000000000000000     
   4.7123889803846897      -0.78539816339744828        0.0000000000000000     
   5.4977871437821380      -0.78539816339744828        0.0000000000000000     
   6.2831853071795862      -0.78539816339744828        0.0000000000000000     
   0.0000000000000000        0.0000000000000000        0.0000000000000000     
  0.78539816339744828        0.0000000000000000        0.0000000000000000     
   1.5707963267948966        0.0000000000000000        0.0000000000000000     
   2.3561944901923448        0.0000000000000000        0.0000000000000000     
   3.1415926535897931        0.0000000000000000        0.0000000000000000     
   3.9269908169872414        0.0000000000000000        0.0000000000000000     
   4.7123889803846897        0.0000000000000000        0.0000000000000000     
   5.4977871437821380        0.0000000000000000        0.0000000000000000     
   6.2831853071795862        0.0000000000000000        0.0000000000000000     
   0.0000000000000000       0.78539816339744828        0.0000000000000000     
  0.78539816339744828       0.78539816339744828        0.0000000000000000     
   1.5707963267948966       0.78539816339744828        0.0000000000000000     
   2.3561944901923448       0.78539816339744828        0.0000000000000000     
   3.1415926535897931       0.78539816339744828        0.0000000000000000     
   3.9269908169872414       0.78539816339744828        0.0000000000000000     
   4.7123889803846897       0.78539816339744828        0.0000000000000000     
   5.4977871437821380       0.78539816339744828        0.0000000000000000     
   6.2831853071795862       0.78539816339744828        0.0000000000000000     
   0.0000000000000000        1.5707963267948966        0.0000000000000000     
  0.78539816339744828        1.5707963267948966        0.0000000000000000     
   1.5707963267948966        1.5707963267948966        0.0000000000000000     
   2.3561944901923448        1.5707963267948966        0.0000000000000000     
   3.1415926535897931        1.5707963267948966        0.0000000000000000     
   3.9269908169872414        1.5707963267948966        0.0000000000000000     
   4.7123889803846897        1.5707963267948966        0.0000000000000000     
   5.4977871437821380        1.5707963267948966        0.0000000000000000     
   6.2831853071795862        1.5707963267948966        0.0000000000000000     
   0.0000000000000000        2.3561944901923448        0.0000000000000000     
  0.78539816339744828        2.3561944901923448        0.0000000000000000     
   1.5707963267948966        2.3561944901923448        0.0000000000000000     
   2.3561944901923448        2.3561944901923448        0.0000000000000000     
   3.1415926535897931        2.3561944901923448        0.0000000000000000     
   3.9269908169872414        2.3561944901923448        0.0000000000000000     
   4.7123889803846897        2.3561944901923448        0.0000000000000000     
   5.4977871437821380        2.3561944901923448        0.0000000000000000     
   6.2831853071795862        2.3561944901923448        0.0000000000000000     
   0.0000000000000000        3.1415926535897931        0.0000000000000000     
  0.78539816339744828        3.1415926535897931        0.0000000000000000     
   1.5707963267948966        3.1415926535897931        0.0000000000000000     
   2.3561944901923448        3.1415926535897931        0.0000000000000000     
   3.1415926535897931        3.1415926535897931        0.0000000000000000     
   3.9269908169872414        3.1415926535897931        0.0000000000000000     
   4.7123889803846897        3.1415926535897931        0.0000000000000000     
   5.4977871437821380        3.1415926535897931        0.0000000000000000     
   6.2831853071795862        3.1415926535897931        0.0000000000000000     
CELL_DATA        64
SCALARS v float         1
LOOKUP_TABLE default
  0.32660027951532900     
  0.13528226525009296     
 -0.13528226525009301     
 -0.32660027951532900     
 -0.32660027951532888     
 -0.13528226525009321     
  0.13528226525009307     
  0.32660027951532900     
  0.78848282428075012     
  0.32660027951532894     
 -0.32660027951532872     
 -0.78848282428075012     
 -0.78848282428075067     
 -0.32660027951532922     
  0.32660027951532905     
  0.78848282428075001     
  0.78848282428075045     
  0.32660027951532877     
 -0.32660027951532883     
 -0.78848282428075045     
 -0.78848282428075012     
 -0.32660027951532927     
  0.32660027951532894     
  0.78848282428075012     
  0.32660027951532877     
  0.13528226525009293     
 -0.13528226525009282     
 -0.32660027951532877     
 -0.32660027951532905     
 -0.13528226525009313     
  0.13528226525009299     
  0.32660027951532894     
 -0.32660027951532877     
 -0.13528226525009293     
  0.13528226525009285     
  0.32660027951532877     
  0.32660027951532905     
  0.13528226525009315     
 -0.13528226525009301     
 -0.32660027951532883     
 -0.78848282428075045     
 -0.32660027951532877     
  0.32660027951532883     
  0.78848282428075045     
  0.78848282428075023     
  0.32660027951532927     
 -0.32660027951532900     
 -0.78848282428075023     
 -0.78848282428075023     
 -0.32660027951532888     
  0.32660027951532877     
  0.78848282428075023     
  0.78848282428075067     
  0.32660027951532916     
 -0.32660027951532900     
 -0.78848282428075001     
 -0.32660027951532894     
 -0.13528226525009293     
  0.13528226525009293     
  0.32660027951532894     
  0.32660027951532883     
  0.13528226525009318     
 -0.13528226525009301     
 -0.32660027951532894     
CELL_DATA        64
SCALARS v float         1
LOOKUP_TABLE default
  0.32660027951532900     
  0.13528226525009296     
 -0.13528226525009301     
 -0.32660027951532900     
 -0.32660027951532888     
 -0.13528226525009321     
  0.13528226525009307     
  0.32660027951532900     
  0.78848282428075012     
  0.32660027951532894     
 -0.32660027951532872     
 -0.78848282428075012     
 -0.78848282428075067     
 -0.32660027951532922     
  0.32660027951532905     
  0.78848282428075001     
  0.78848282428075045     
  0.32660027951532877     
 -0.32660027951532883     
 -0.78848282428075045     
 -0.78848282428075012     
 -0.32660027951532927     
  0.32660027951532894     
  0.78848282428075012     
  0.32660027951532877     
  0.13528226525009293     
 -0.13528226525009282     
 -0.32660027951532877     
 -0.32660027951532905     
 -0.13528226525009313     
  0.13528226525009299     
  0.32660027951532894     
 -0.32660027951532877     
 -0.13528226525009293     
  0.13528226525009285     
  0.32660027951532877     
  0.32660027951532905     
  0.13528226525009315     
 -0.13528226525009301     
 -0.32660027951532883     
 -0.78848282428075045     
 -0.32660027951532877     
  0.32660027951532883     
  0.78848282428075045     
  0.78848282428075023     
  0.32660027951532927     
 -0.32660027951532900     
 -0.78848282428075023     
 -0.78848282428075023     
 -0.32660027951532888     
  0.32660027951532877     
  0.78848282428075023     
  0.78848282428075067     
  0.32660027951532916     
 -0.32660027951532900     
 -0.78848282428075001     
 -0.32660027951532894     
 -0.13528226525009293     
  0.13528226525009293     
  0.32660027951532894     
  0.32660027951532883     
  0.13528226525009318     
 -0.13528226525009301     
 -0.32660027951532894     
CELL_DATA      1024
SCALARS v float         1
LOOKUP_TABLE default
   9.7075451666695622E-002
   9.3344896499685082E-002
   8.6027149308612688E-002
   7.5403427014191282E-002
   6.1881993306343648E-002
   4.5982469299554907E-002
   2.8315864784850084E-002
   9.5610974661834471E-003
  -9.5610974661834332E-003
  -2.8315864784850056E-002
  -4.5982469299554879E-002
  -6.1881993306343641E-002
  -7.5403427014191282E-002
  -8.6027149308612619E-002
  -9.3344896499685082E-002
  -9.7075451666695650E-002
  -9.7075451666695622E-002
  -9.3344896499685109E-002
  -8.6027149308612688E-002
  -7.5403427014191296E-002
  -6.1881993306343697E-002
  -4.5982469299554907E-002
  -2.8315864784850119E-002
  -9.5610974661834106E-003
   9.5610974661833811E-003
   2.8315864784850053E-002
   4.5982469299554872E-002
   6.1881993306343697E-002
   7.5403427014191282E-002
   8.6027149308612591E-002
   9.3344896499685082E-002
   9.7075451666695622E-002
  0.28749579983307605     
  0.27644749747499275     
  0.25477547282248836     
  0.22331256962914714     
  0.18326788962008944     
  0.13618032739074834     
   8.3859431550588240E-002
   2.8315864784850077E-002
  -2.8315864784850046E-002
  -8.3859431550588212E-002
 -0.13618032739074837     
 -0.18326788962008947     
 -0.22331256962914714     
 -0.25477547282248841     
 -0.27644749747499275     
 -0.28749579983307594     
 -0.28749579983307605     
 -0.27644749747499270     
 -0.25477547282248836     
 -0.22331256962914714     
 -0.18326788962008958     
 -0.13618032739074840     
  -8.3859431550588226E-002
  -2.8315864784850001E-002
   2.8315864784849879E-002
   8.3859431550588157E-002
  0.13618032739074831     
  0.18326788962008939     
  0.22331256962914703     
  0.25477547282248836     
  0.27644749747499275     
  0.28749579983307605     
  0.46686784564137279     
  0.44892637615587899     
  0.41373291779552701     
  0.36263993542838646     
  0.29761090371355159     
  0.22114485187112273     
  0.13618032739074820     
   4.5982469299554830E-002
  -4.5982469299554754E-002
 -0.13618032739074812     
 -0.22114485187112262     
 -0.29761090371355148     
 -0.36263993542838646     
 -0.41373291779552696     
 -0.44892637615587899     
 -0.46686784564137268     
 -0.46686784564137279     
 -0.44892637615587916     
 -0.41373291779552701     
 -0.36263993542838646     
 -0.29761090371355181     
 -0.22114485187112276     
 -0.13618032739074831     
  -4.5982469299554678E-002
   4.5982469299554511E-002
  0.13618032739074803     
  0.22114485187112259     
  0.29761090371355170     
  0.36263993542838630     
  0.41373291779552696     
  0.44892637615587899     
  0.46686784564137279     
  0.62829842196417607     
  0.60415326596190710     
  0.55679083876177726     
  0.48803125187993185     
  0.40051689767941984     
  0.29761090371355176     
  0.18326788962008927     
   6.1881993306343572E-002
  -6.1881993306343502E-002
 -0.18326788962008911     
 -0.29761090371355164     
 -0.40051689767941984     
 -0.48803125187993185     
 -0.55679083876177715     
 -0.60415326596190710     
 -0.62829842196417607     
 -0.62829842196417607     
 -0.60415326596190733     
 -0.55679083876177726     
 -0.48803125187993185     
 -0.40051689767942006     
 -0.29761090371355187     
 -0.18326788962008922     
  -6.1881993306343371E-002
   6.1881993306343148E-002
  0.18326788962008916     
  0.29761090371355153     
  0.40051689767941995     
  0.48803125187993146     
  0.55679083876177715     
  0.60415326596190710     
  0.62829842196417607     
  0.76558384228471099     
  0.73616288457007450     
  0.67845160004631233     
  0.59466780101281069     
  0.48803125187993202     
  0.36263993542838646     
  0.22331256962914683     
   7.5403427014191199E-002
  -7.5403427014191116E-002
 -0.22331256962914683     
 -0.36263993542838657     
 -0.48803125187993202     
 -0.59466780101281069     
 -0.67845160004631233     
 -0.73616288457007450     
 -0.76558384228471088     
 -0.76558384228471099     
 -0.73616288457007450     
 -0.67845160004631233     
 -0.59466780101281114     
 -0.48803125187993246     
 -0.36263993542838646     
 -0.22331256962914706     
  -7.5403427014190963E-002
   7.5403427014190672E-002
  0.22331256962914661     
  0.36263993542838657     
  0.48803125187993213     
  0.59466780101281058     
  0.67845160004631233     
  0.73616288457007450     
  0.76558384228471099     
  0.87344830489060943     
  0.83988217636911566     
  0.77403984682110805     
  0.67845160004631255     
  0.55679083876177748     
  0.41373291779552746     
  0.25477547282248825     
   8.6027149308612522E-002
  -8.6027149308612397E-002
 -0.25477547282248814     
 -0.41373291779552723     
 -0.55679083876177726     
 -0.67845160004631255     
 -0.77403984682110771     
 -0.83988217636911566     
 -0.87344830489060921     
 -0.87344830489060943     
 -0.83988217636911600     
 -0.77403984682110805     
 -0.67845160004631222     
 -0.55679083876177771     
 -0.41373291779552746     
 -0.25477547282248830     
  -8.6027149308612216E-002
   8.6027149308611953E-002
  0.25477547282248791     
  0.41373291779552690     
  0.55679083876177760     
  0.67845160004631222     
  0.77403984682110782     
  0.83988217636911566     
  0.87344830489060943     
  0.94774663897501366     
  0.91132526714164208     
  0.83988217636911533     
  0.73616288457007395     
  0.60415326596190733     
  0.44892637615587916     
  0.27644749747499242     
   9.3344896499684929E-002
  -9.3344896499684846E-002
 -0.27644749747499225     
 -0.44892637615587916     
 -0.60415326596190710     
 -0.73616288457007395     
 -0.83988217636911544     
 -0.91132526714164208     
 -0.94774663897501343     
 -0.94774663897501366     
 -0.91132526714164219     
 -0.83988217636911533     
 -0.73616288457007428     
 -0.60415326596190733     
 -0.44892637615587916     
 -0.27644749747499270     
  -9.3344896499684651E-002
   9.3344896499684291E-002
  0.27644749747499220     
  0.44892637615587905     
  0.60415326596190722     
  0.73616288457007373     
  0.83988217636911533     
  0.91132526714164208     
  0.94774663897501366     
  0.98562360122604720     
  0.94774663897501354     
  0.87344830489060921     
  0.76558384228471077     
  0.62829842196417607     
  0.46686784564137296     
  0.28749579983307549     
   9.7075451666695567E-002
  -9.7075451666695470E-002
 -0.28749579983307538     
 -0.46686784564137268     
 -0.62829842196417607     
 -0.76558384228471077     
 -0.87344830489060876     
 -0.94774663897501354     
 -0.98562360122604686     
 -0.98562360122604720     
 -0.94774663897501388     
 -0.87344830489060921     
 -0.76558384228471099     
 -0.62829842196417662     
 -0.46686784564137307     
 -0.28749579983307560     
  -9.7075451666695262E-002
   9.7075451666694901E-002
  0.28749579983307527     
  0.46686784564137263     
  0.62829842196417651     
  0.76558384228471077     
  0.87344830489060854     
  0.94774663897501354     
  0.98562360122604720     
  0.98562360122604720     
  0.94774663897501354     
  0.87344830489060932     
  0.76558384228471099     
  0.62829842196417618     
  0.46686784564137312     
  0.28749579983307560     
   9.7075451666695595E-002
  -9.7075451666695484E-002
 -0.28749579983307555     
 -0.46686784564137290     
 -0.62829842196417607     
 -0.76558384228471099     
 -0.87344830489060865     
 -0.94774663897501354     
 -0.98562360122604697     
 -0.98562360122604720     
 -0.94774663897501399     
 -0.87344830489060932     
 -0.76558384228471099     
 -0.62829842196417651     
 -0.46686784564137312     
 -0.28749579983307577     
  -9.7075451666695275E-002
   9.7075451666694929E-002
  0.28749579983307544     
  0.46686784564137268     
  0.62829842196417640     
  0.76558384228471033     
  0.87344830489060887     
  0.94774663897501354     
  0.98562360122604720     
  0.94774663897501399     
  0.91132526714164230     
  0.83988217636911533     
  0.73616288457007417     
  0.60415326596190744     
  0.44892637615587910     
  0.27644749747499248     
   9.3344896499684957E-002
  -9.3344896499684846E-002
 -0.27644749747499231     
 -0.44892637615587910     
 -0.60415326596190722     
 -0.73616288457007417     
 -0.83988217636911555     
 -0.91132526714164230     
 -0.94774663897501377     
 -0.94774663897501399     
 -0.91132526714164230     
 -0.83988217636911533     
 -0.73616288457007439     
 -0.60415326596190766     
 -0.44892637615587910     
 -0.27644749747499264     
  -9.3344896499684651E-002
   9.3344896499684291E-002
  0.27644749747499220     
  0.44892637615587899     
  0.60415326596190744     
  0.73616288457007417     
  0.83988217636911533     
  0.91132526714164230     
  0.94774663897501399     
  0.87344830489060887     
  0.83988217636911555     
  0.77403984682110805     
  0.67845160004631233     
  0.55679083876177737     
  0.41373291779552746     
  0.25477547282248825     
   8.6027149308612494E-002
  -8.6027149308612369E-002
 -0.25477547282248814     
 -0.41373291779552723     
 -0.55679083876177715     
 -0.67845160004631233     
 -0.77403984682110771     
 -0.83988217636911555     
 -0.87344830489060876     
 -0.87344830489060887     
 -0.83988217636911577     
 -0.77403984682110805     
 -0.67845160004631244     
 -0.55679083876177771     
 -0.41373291779552746     
 -0.25477547282248830     
  -8.6027149308612216E-002
   8.6027149308611939E-002
  0.25477547282248791     
  0.41373291779552684     
  0.55679083876177737     
  0.67845160004631178     
  0.77403984682110771     
  0.83988217636911555     
  0.87344830489060887     
  0.76558384228471077     
  0.73616288457007439     
  0.67845160004631211     
  0.59466780101281069     
  0.48803125187993196     
  0.36263993542838657     
  0.22331256962914692     
   7.5403427014191213E-002
  -7.5403427014191116E-002
 -0.22331256962914675     
 -0.36263993542838657     
 -0.48803125187993213     
 -0.59466780101281069     
 -0.67845160004631222     
 -0.73616288457007439     
 -0.76558384228471099     
 -0.76558384228471077     
 -0.73616288457007439     
 -0.67845160004631211     
 -0.59466780101281080     
 -0.48803125187993235     
 -0.36263993542838657     
 -0.22331256962914703     
  -7.5403427014190963E-002
   7.5403427014190672E-002
  0.22331256962914672     
  0.36263993542838663     
  0.48803125187993207     
  0.59466780101281058     
  0.67845160004631233     
  0.73616288457007439     
  0.76558384228471077     
  0.62829842196417629     
  0.60415326596190733     
  0.55679083876177726     
  0.48803125187993163     
  0.40051689767941978     
  0.29761090371355164     
  0.18326788962008908     
   6.1881993306343551E-002
  -6.1881993306343475E-002
 -0.18326788962008908     
 -0.29761090371355164     
 -0.40051689767941956     
 -0.48803125187993163     
 -0.55679083876177715     
 -0.60415326596190733     
 -0.62829842196417596     
 -0.62829842196417629     
 -0.60415326596190733     
 -0.55679083876177726     
 -0.48803125187993185     
 -0.40051689767941989     
 -0.29761090371355176     
 -0.18326788962008925     
  -6.1881993306343364E-002
   6.1881993306343135E-002
  0.18326788962008903     
  0.29761090371355148     
  0.40051689767941984     
  0.48803125187993146     
  0.55679083876177693     
  0.60415326596190733     
  0.62829842196417629     
  0.46686784564137257     
  0.44892637615587894     
  0.41373291779552690     
  0.36263993542838646     
  0.29761090371355164     
  0.22114485187112271     
  0.13618032739074823     
   4.5982469299554823E-002
  -4.5982469299554754E-002
 -0.13618032739074812     
 -0.22114485187112259     
 -0.29761090371355164     
 -0.36263993542838646     
 -0.41373291779552696     
 -0.44892637615587894     
 -0.46686784564137263     
 -0.46686784564137257     
 -0.44892637615587894     
 -0.41373291779552690     
 -0.36263993542838646     
 -0.29761090371355181     
 -0.22114485187112268     
 -0.13618032739074823     
  -4.5982469299554678E-002
   4.5982469299554490E-002
  0.13618032739074803     
  0.22114485187112254     
  0.29761090371355159     
  0.36263993542838624     
  0.41373291779552696     
  0.44892637615587894     
  0.46686784564137257     
  0.28749579983307583     
  0.27644749747499270     
  0.25477547282248841     
  0.22331256962914695     
  0.18326788962008927     
  0.13618032739074831     
   8.3859431550588226E-002
   2.8315864784850077E-002
  -2.8315864784850032E-002
  -8.3859431550588143E-002
 -0.13618032739074826     
 -0.18326788962008930     
 -0.22331256962914695     
 -0.25477547282248836     
 -0.27644749747499270     
 -0.28749579983307572     
 -0.28749579983307583     
 -0.27644749747499270     
 -0.25477547282248841     
 -0.22331256962914703     
 -0.18326788962008947     
 -0.13618032739074840     
  -8.3859431550588254E-002
  -2.8315864784849966E-002
   2.8315864784849876E-002
   8.3859431550588143E-002
  0.13618032739074826     
  0.18326788962008936     
  0.22331256962914686     
  0.25477547282248825     
  0.27644749747499270     
  0.28749579983307583     
   9.7075451666695498E-002
   9.3344896499684901E-002
   8.6027149308612466E-002
   7.5403427014191199E-002
   6.1881993306343593E-002
   4.5982469299554844E-002
   2.8315864784850035E-002
   9.5610974661834280E-003
  -9.5610974661834210E-003
  -2.8315864784850039E-002
  -4.5982469299554837E-002
  -6.1881993306343558E-002
  -7.5403427014191199E-002
  -8.6027149308612438E-002
  -9.3344896499684901E-002
  -9.7075451666695553E-002
  -9.7075451666695498E-002
  -9.3344896499684943E-002
  -8.6027149308612466E-002
  -7.5403427014191199E-002
  -6.1881993306343620E-002
  -4.5982469299554816E-002
  -2.8315864784850042E-002
  -9.5610974661834054E-003
   9.5610974661833655E-003
   2.8315864784850001E-002
   4.5982469299554816E-002
   6.1881993306343593E-002
   7.5403427014191199E-002
   8.6027149308612494E-002
   9.3344896499684901E-002
   9.7075451666695498E-002
  -9.7075451666695511E-002
  -9.3344896499684901E-002
  -8.6027149308612466E-002
  -7.5403427014191213E-002
  -6.1881993306343593E-002
  -4.5982469299554872E-002
  -2.8315864784850039E-002
  -9.5610974661834297E-003
   9.5610974661834228E-003
   2.8315864784850053E-002
   4.5982469299554844E-002
   6.1881993306343558E-002
   7.5403427014191213E-002
   8.6027149308612438E-002
   9.3344896499684901E-002
   9.7075451666695553E-002
   9.7075451666695511E-002
   9.3344896499684929E-002
   8.6027149308612466E-002
   7.5403427014191213E-002
   6.1881993306343620E-002
   4.5982469299554830E-002
   2.8315864784850049E-002
   9.5610974661834072E-003
  -9.5610974661833655E-003
  -2.8315864784850008E-002
  -4.5982469299554830E-002
  -6.1881993306343586E-002
  -7.5403427014191240E-002
  -8.6027149308612522E-002
  -9.3344896499684901E-002
  -9.7075451666695511E-002
 -0.28749579983307583     
 -0.27644749747499275     
 -0.25477547282248841     
 -0.22331256962914697     
 -0.18326788962008933     
 -0.13618032739074826     
  -8.3859431550588240E-002
  -2.8315864784850070E-002
   2.8315864784850028E-002
   8.3859431550588115E-002
  0.13618032739074826     
  0.18326788962008930     
  0.22331256962914697     
  0.25477547282248841     
  0.27644749747499275     
  0.28749579983307577     
  0.28749579983307583     
  0.27644749747499275     
  0.25477547282248841     
  0.22331256962914708     
  0.18326788962008950     
  0.13618032739074837     
   8.3859431550588254E-002
   2.8315864784849973E-002
  -2.8315864784849886E-002
  -8.3859431550588143E-002
 -0.13618032739074826     
 -0.18326788962008939     
 -0.22331256962914683     
 -0.25477547282248825     
 -0.27644749747499275     
 -0.28749579983307583     
 -0.46686784564137274     
 -0.44892637615587899     
 -0.41373291779552707     
 -0.36263993542838657     
 -0.29761090371355164     
 -0.22114485187112273     
 -0.13618032739074820     
  -4.5982469299554830E-002
   4.5982469299554768E-002
  0.13618032739074817     
  0.22114485187112265     
  0.29761090371355170     
  0.36263993542838657     
  0.41373291779552696     
  0.44892637615587899     
  0.46686784564137268     
  0.46686784564137274     
  0.44892637615587899     
  0.41373291779552707     
  0.36263993542838646     
  0.29761090371355181     
  0.22114485187112268     
  0.13618032739074823     
   4.5982469299554685E-002
  -4.5982469299554490E-002
 -0.13618032739074806     
 -0.22114485187112257     
 -0.29761090371355164     
 -0.36263993542838635     
 -0.41373291779552701     
 -0.44892637615587899     
 -0.46686784564137274     
 -0.62829842196417618     
 -0.60415326596190722     
 -0.55679083876177715     
 -0.48803125187993168     
 -0.40051689767941984     
 -0.29761090371355159     
 -0.18326788962008916     
  -6.1881993306343544E-002
   6.1881993306343475E-002
  0.18326788962008908     
  0.29761090371355153     
  0.40051689767941956     
  0.48803125187993168     
  0.55679083876177715     
  0.60415326596190722     
  0.62829842196417607     
  0.62829842196417618     
  0.60415326596190722     
  0.55679083876177715     
  0.48803125187993185     
  0.40051689767941995     
  0.29761090371355181     
  0.18326788962008933     
   6.1881993306343364E-002
  -6.1881993306343142E-002
 -0.18326788962008903     
 -0.29761090371355148     
 -0.40051689767941984     
 -0.48803125187993157     
 -0.55679083876177693     
 -0.60415326596190722     
 -0.62829842196417618     
 -0.76558384228471088     
 -0.73616288457007417     
 -0.67845160004631233     
 -0.59466780101281069     
 -0.48803125187993202     
 -0.36263993542838663     
 -0.22331256962914686     
  -7.5403427014191227E-002
   7.5403427014191116E-002
  0.22331256962914675     
  0.36263993542838668     
  0.48803125187993213     
  0.59466780101281069     
  0.67845160004631233     
  0.73616288457007417     
  0.76558384228471099     
  0.76558384228471088     
  0.73616288457007450     
  0.67845160004631233     
  0.59466780101281091     
  0.48803125187993235     
  0.36263993542838663     
  0.22331256962914686     
   7.5403427014190977E-002
  -7.5403427014190699E-002
 -0.22331256962914672     
 -0.36263993542838663     
 -0.48803125187993202     
 -0.59466780101281047     
 -0.67845160004631233     
 -0.73616288457007417     
 -0.76558384228471088     
 -0.87344830489060921     
 -0.83988217636911588     
 -0.77403984682110771     
 -0.67845160004631211     
 -0.55679083876177715     
 -0.41373291779552729     
 -0.25477547282248825     
  -8.6027149308612480E-002
   8.6027149308612397E-002
  0.25477547282248808     
  0.41373291779552707     
  0.55679083876177715     
  0.67845160004631211     
  0.77403984682110771     
  0.83988217636911588     
  0.87344830489060865     
  0.87344830489060921     
  0.83988217636911555     
  0.77403984682110771     
  0.67845160004631211     
  0.55679083876177771     
  0.41373291779552729     
  0.25477547282248841     
   8.6027149308612202E-002
  -8.6027149308611911E-002
 -0.25477547282248786     
 -0.41373291779552696     
 -0.55679083876177737     
 -0.67845160004631189     
 -0.77403984682110760     
 -0.83988217636911588     
 -0.87344830489060921     
 -0.94774663897501343     
 -0.91132526714164164     
 -0.83988217636911544     
 -0.73616288457007428     
 -0.60415326596190744     
 -0.44892637615587910     
 -0.27644749747499248     
  -9.3344896499684971E-002
   9.3344896499684846E-002
  0.27644749747499231     
  0.44892637615587894     
  0.60415326596190722     
  0.73616288457007428     
  0.83988217636911544     
  0.91132526714164164     
  0.94774663897501377     
  0.94774663897501343     
  0.91132526714164241     
  0.83988217636911544     
  0.73616288457007428     
  0.60415326596190766     
  0.44892637615587933     
  0.27644749747499259     
   9.3344896499684638E-002
  -9.3344896499684291E-002
 -0.27644749747499225     
 -0.44892637615587905     
 -0.60415326596190744     
 -0.73616288457007406     