# vtk DataFile Version 2.0
xy_mesh
ASCII
DATASET STRUCTURED_GRID
DIMENSIONS         9         9         1
POINTS        81 float
   0.0000000000000000       -3.1415926535897931        0.0000000000000000     
  0.78539816339744828       -3.1415926535897931        0.0000000000000000     
   1.5707963267948966       -3.1415926535897931        0.0000000000000000     
   2.3561944901923448       -3.1415926535897931        0.0000000000000000     
   3.1415926535897931       -3.1415926535897931        0.0000000000000000     
   3.9269908169872414       -3.1415926535897931        0.0000000000000000     
   4.7123889803846897       -3.1415926535897931        0.0000000000000000     
   5.4977871437821380       -3.1415926535897931        0.0000000000000000     
   6.2831853071795862       -3.1415926535897931        0.0000000000000000     
   0.0000000000000000       -2.3561944901923448        0.0000000000000000     
  0.78539816339744828       -2.3561944901923448        0.0000000000000000     
   1.5707963267948966       -2.3561944901923448        0.0000000000000000     
   2.3561944901923448       -2.3561944901923448        0.0000000000000000     
   3.1415926535897931       -2.3561944901923448        0.0000000000000000     
   3.9269908169872414       -2.3561944901923448        0.0000000000000000     
   4.7123889803846897       -2.3561944901923448        0.0000000000000000     
   5.4977871437821380       -2.3561944901923448        0.0000000000000000     
   6.2831853071795862       -2.3561944901923448        0.0000000000000000     
   0.0000000000000000       -1.5707963267948966        0.0000000000000000     
  0.78539816339744828       -1.5707963267948966        0.0000000000000000     
   1.5707963267948966       -1.5707963267948966        0.0000000000000000     
   2.3561944901923448       -1.5707963267948966        0.0000000000000000     
   3.1415926535897931       -1.5707963267948966        0.0000000000000000     
   3.9269908169872414       -1.5707963267948966        0.0000000000000000     
   4.7123889803846897       -1.5707963267948966        0.0000000000000000     
   5.4977871437821380       -1.5707963267948966        0.0000000000000000     
   6.2831853071795862       -1.5707963267948966        0.0000000000000000     
   0.0000000000000000      -0.78539816339744828        0.0000000000000000     
  0.78539816339744828      -0.78539816339744828        0.0000000000000000     
   1.5707963267948966      -0.78539816339744828        0.0000000000000000     
   2.3561944901923448      -0.78539816339744828        0.0000000000000000     
   3.1415926535897931      -0.78539816339744828        0.0000000000000000     
   3.9269908169872414      -0.78539816339744828        0.0000000000000000     
   4.7123889803846897      -0.78539816339744828        0.0000000000000000     
   5.4977871437821380      -0.78539816339744828        0.0000000000000000     
   6.2831853071795862      -0.78539816339744828        0.0000000000000000     
   0.0000000000000000        0.0000000000000000        0.0000000000000000     
  0.78539816339744828        0.0000000000000000        0.0000000000000000     
   1.5707963267948966        0.0000000000000000        0.0000000000000000     
   2.3561944901923448        0.0000000000000000        0.0000000000000000     
   3.1415926535897931        0.0000000000000000        0.0000000000000000     
   3.9269908169872414        0.0000000000000000        0.0000000000000000     
   4.7123889803846897        0.0000000000000000        0.0000000000000000     
   5.4977871437821380        0.0000000000000000        0.0000000000000000     
   6.2831853071795862        0.0000000000000000        0.0000000000000000     
   0.0000000000000000       0.78539816339744828        0.0000000000000000     
  0.78539816339744828       0.78539816339744828        0.0000000000000000     
   1.5707963267948966       0.78539816339744828        0.0000000000000000     
   2.3561944901923448       0.78539816339744828        0.0000000000000000     
   3.1415926535897931       0.78539816339744828        0.0000000000000000     
   3.9269908169872414       0.78539816339744828        0.0000000000000000     
   4.7123889803846897       0.78539816339744828        0.0000000000000000     
   5.4977871437821380       0.78539816339744828        0.0000000000000000     
   6.2831853071795862       0.78539816339744828        0.0000000000000000     
   0.0000000000000000        1.5707963267948966        0.0000000000000000     
  0.78539816339744828        1.5707963267948966        0.0000000000000000     
   1.5707963267948966        1.5707963267948966        0.0000000000000000     
   2.3561944901923448        1.5707963267948966        0.0000000000000000     
   3.1415926535897931        1.5707963267948966        0.0000000000000000     
   3.9269908169872414        1.5707963267948966        0.0000000000000000     
   4.7123889803846897        1.5707963267948966        0.0000000000000000     
   5.4977871437821380        1.5707963267948966        0.0000000000000000     
   6.2831853071795862        1.5707963267948966        0.0000000000000000     
   0.0000000000000000        2.3561944901923448        0.0000000000000000     
  0.78539816339744828        2.3561944901923448        0.0000000000000000     
   1.5707963267948966        2.3561944901923448        0.0000000000000000     
   2.3561944901923448        2.3561944901923448        0.0000000000000000     
   3.1415926535897931        2.3561944901923448        0.0000000000000000     
   3.9269908169872414        2.3561944901923448        0.0000000000000000     
   4.7123889803846897        2.3561944901923448        0.0000000000000000     
   5.4977871437821380        2.3561944901923448        0.0000000000000000     
   6.2831853071795862        2.3561944901923448        0.0000000000000000     
   0.0000000000000000        3.1415926535897931        0.0000000000000000     
  0.78539816339744828        3.1415926535897931        0.0000000000000000     
   1.5707963267948966        3.1415926535897931        0.0000000000000000     
   2.3561944901923448        3.1415926535897931        0.0000000000000000     
   3.1415926535897931        3.1415926535897931        0.0000000000000000     
   3.9269908169872414        3.1415926535897931        0.0000000000000000     
   4.7123889803846897        3.1415926535897931        0.0000000000000000     
   5.4977871437821380        3.1415926535897931        0.0000000000000000     
   6.2831853071795862        3.1415926535897931        0.0000000000000000     
CELL_DATA        64
SCALARS u float         1
LOOKUP_TABLE default
 -0.32660027951532888     
 -0.78848282428075012     
 -0.78848282428075034     
 -0.32660027951532888     
  0.32660027951532866     
  0.78848282428075045     
  0.78848282428075023     
  0.32660027951532894     
 -0.13528226525009288     
 -0.32660027951532883     
 -0.32660027951532872     
 -0.13528226525009296     
  0.13528226525009288     
  0.32660027951532883     
  0.32660027951532877     
  0.13528226525009293     
  0.13528226525009299     
  0.32660027951532872     
  0.32660027951532894     
  0.13528226525009296     
 -0.13528226525009288     
 -0.32660027951532877     
 -0.32660027951532883     
 -0.13528226525009304     
  0.32660027951532888     
  0.78848282428075012     
  0.78848282428075034     
  0.32660027951532888     
 -0.32660027951532866     
 -0.78848282428075045     
 -0.78848282428075023     
 -0.32660027951532894     
  0.32660027951532888     
  0.78848282428075012     
  0.78848282428075034     
  0.32660027951532888     
 -0.32660027951532866     
 -0.78848282428075045     
 -0.78848282428075023     
 -0.32660027951532894     
  0.13528226525009313     
  0.32660027951532905     
  0.32660027951532927     
  0.13528226525009310     
 -0.13528226525009304     
 -0.32660027951532916     
 -0.32660027951532927     
 -0.13528226525009313     
 -0.13528226525009307     
 -0.32660027951532905     
 -0.32660027951532900     
 -0.13528226525009313     
  0.13528226525009307     
  0.32660027951532905     
  0.32660027951532911     
  0.13528226525009313     
 -0.32660027951532894     
 -0.78848282428075001     
 -0.78848282428075012     
 -0.32660027951532894     
  0.32660027951532872     
  0.78848282428075023     
  0.78848282428075023     
  0.32660027951532894     
CELL_DATA        64
SCALARS u float         1
LOOKUP_TABLE default
 -0.32660027951532888     
 -0.78848282428075012     
 -0.78848282428075034     
 -0.32660027951532888     
  0.32660027951532866     
  0.78848282428075045     
  0.78848282428075023     
  0.32660027951532894     
 -0.13528226525009288     
 -0.32660027951532883     
 -0.32660027951532872     
 -0.13528226525009296     
  0.13528226525009288     
  0.32660027951532883     
  0.32660027951532877     
  0.13528226525009293     
  0.13528226525009299     
  0.32660027951532872     
  0.32660027951532894     
  0.13528226525009296     
 -0.13528226525009288     
 -0.32660027951532877     
 -0.32660027951532883     
 -0.13528226525009304     
  0.32660027951532888     
  0.78848282428075012     
  0.78848282428075034     
  0.32660027951532888     
 -0.32660027951532866     
 -0.78848282428075045     
 -0.78848282428075023     
 -0.32660027951532894     
  0.32660027951532888     
  0.78848282428075012     
  0.78848282428075034     
  0.32660027951532888     
 -0.32660027951532866     
 -0.78848282428075045     
 -0.78848282428075023     
 -0.32660027951532894     
  0.13528226525009313     
  0.32660027951532905     
  0.32660027951532927     
  0.13528226525009310     
 -0.13528226525009304     
 -0.32660027951532916     
 -0.32660027951532927     
 -0.13528226525009313     
 -0.13528226525009307     
 -0.32660027951532905     
 -0.32660027951532900     
 -0.13528226525009313     
  0.13528226525009307     
  0.32660027951532905     
  0.32660027951532911     
  0.13528226525009313     
 -0.32660027951532894     
 -0.78848282428075001     
 -0.78848282428075012     
 -0.32660027951532894     
  0.32660027951532872     
  0.78848282428075023     
  0.78848282428075023     
  0.32660027951532894     
CELL_DATA      1024
SCALARS u float         1
LOOKUP_TABLE default
  -9.7075451666695400E-002
 -0.28749579983307572     
 -0.46686784564137246     
 -0.62829842196417629     
 -0.76558384228471066     
 -0.87344830489060898     
 -0.94774663897501343     
 -0.98562360122604686     
 -0.98562360122604697     
 -0.94774663897501377     
 -0.87344830489060887     
 -0.76558384228471088     
 -0.62829842196417618     
 -0.46686784564137279     
 -0.28749579983307588     
  -9.7075451666695664E-002
   9.7075451666695456E-002
  0.28749579983307566     
  0.46686784564137268     
  0.62829842196417574     
  0.76558384228471099     
  0.87344830489060876     
  0.94774663897501354     
  0.98562360122604686     
  0.98562360122604697     
  0.94774663897501354     
  0.87344830489060932     
  0.76558384228471099     
  0.62829842196417618     
  0.46686784564137296     
  0.28749579983307622     
   9.7075451666695581E-002
  -9.3344896499684790E-002
 -0.27644749747499253     
 -0.44892637615587894     
 -0.60415326596190722     
 -0.73616288457007428     
 -0.83988217636911566     
 -0.91132526714164208     
 -0.94774663897501354     
 -0.94774663897501354     
 -0.91132526714164230     
 -0.83988217636911544     
 -0.73616288457007462     
 -0.60415326596190722     
 -0.44892637615587899     
 -0.27644749747499286     
  -9.3344896499685054E-002
   9.3344896499684818E-002
  0.27644749747499264     
  0.44892637615587894     
  0.60415326596190699     
  0.73616288457007450     
  0.83988217636911544     
  0.91132526714164219     
  0.94774663897501377     
  0.94774663897501366     
  0.91132526714164208     
  0.83988217636911555     
  0.73616288457007473     
  0.60415326596190733     
  0.44892637615587933     
  0.27644749747499314     
   9.3344896499684971E-002
  -8.6027149308612383E-002
 -0.25477547282248819     
 -0.41373291779552696     
 -0.55679083876177715     
 -0.67845160004631233     
 -0.77403984682110771     
 -0.83988217636911544     
 -0.87344830489060876     
 -0.87344830489060865     
 -0.83988217636911555     
 -0.77403984682110771     
 -0.67845160004631233     
 -0.55679083876177704     
 -0.41373291779552712     
 -0.25477547282248836     
  -8.6027149308612633E-002
   8.6027149308612424E-002
  0.25477547282248814     
  0.41373291779552701     
  0.55679083876177693     
  0.67845160004631233     
  0.77403984682110749     
  0.83988217636911544     
  0.87344830489060876     
  0.87344830489060898     
  0.83988217636911533     
  0.77403984682110771     
  0.67845160004631255     
  0.55679083876177704     
  0.41373291779552746     
  0.25477547282248864     
   8.6027149308612536E-002
  -7.5403427014191116E-002
 -0.22331256962914678     
 -0.36263993542838652     
 -0.48803125187993179     
 -0.59466780101281058     
 -0.67845160004631222     
 -0.73616288457007406     
 -0.76558384228471066     
 -0.76558384228471110     
 -0.73616288457007406     
 -0.67845160004631255     
 -0.59466780101281069     
 -0.48803125187993185     
 -0.36263993542838652     
 -0.22331256962914714     
  -7.5403427014191254E-002
   7.5403427014191116E-002
  0.22331256962914686     
  0.36263993542838641     
  0.48803125187993179     
  0.59466780101281036     
  0.67845160004631222     
  0.73616288457007417     
  0.76558384228471110     
  0.76558384228471088     
  0.73616288457007428     
  0.67845160004631211     
  0.59466780101281091     
  0.48803125187993196     
  0.36263993542838663     
  0.22331256962914742     
   7.5403427014191199E-002
  -6.1881993306343447E-002
 -0.18326788962008925     
 -0.29761090371355148     
 -0.40051689767941984     
 -0.48803125187993179     
 -0.55679083876177726     
 -0.60415326596190710     
 -0.62829842196417607     
 -0.62829842196417607     
 -0.60415326596190722     
 -0.55679083876177715     
 -0.48803125187993207     
 -0.40051689767941984     
 -0.29761090371355159     
 -0.18326788962008941     
  -6.1881993306343648E-002
   6.1881993306343475E-002
  0.18326788962008930     
  0.29761090371355137     
  0.40051689767941989     
  0.48803125187993157     
  0.55679083876177748     
  0.60415326596190699     
  0.62829842196417607     
  0.62829842196417618     
  0.60415326596190733     
  0.55679083876177704     
  0.48803125187993207     
  0.40051689767941978     
  0.29761090371355187     
  0.18326788962008966     
   6.1881993306343565E-002
  -4.5982469299554740E-002
 -0.13618032739074826     
 -0.22114485187112262     
 -0.29761090371355159     
 -0.36263993542838646     
 -0.41373291779552712     
 -0.44892637615587916     
 -0.46686784564137268     
 -0.46686784564137290     
 -0.44892637615587910     
 -0.41373291779552723     
 -0.36263993542838657     
 -0.29761090371355164     
 -0.22114485187112268     
 -0.13618032739074840     
  -4.5982469299554851E-002
   4.5982469299554740E-002
  0.13618032739074831     
  0.22114485187112248     
  0.29761090371355170     
  0.36263993542838646     
  0.41373291779552707     
  0.44892637615587894     
  0.46686784564137296     
  0.46686784564137274     
  0.44892637615587910     
  0.41373291779552718     
  0.36263993542838668     
  0.29761090371355170     
  0.22114485187112279     
  0.13618032739074856     
   4.5982469299554816E-002
  -2.8315864784849994E-002
  -8.3859431550588115E-002
 -0.13618032739074815     
 -0.18326788962008911     
 -0.22331256962914672     
 -0.25477547282248802     
 -0.27644749747499225     
 -0.28749579983307538     
 -0.28749579983307555     
 -0.27644749747499231     
 -0.25477547282248814     
 -0.22331256962914683     
 -0.18326788962008914     
 -0.13618032739074809     
  -8.3859431550588212E-002
  -2.8315864784850063E-002
   2.8315864784849987E-002
   8.3859431550588143E-002
  0.13618032739074806     
  0.18326788962008914     
  0.22331256962914675     
  0.25477547282248808     
  0.27644749747499231     
  0.28749579983307549     
  0.28749579983307549     
  0.27644749747499231     
  0.25477547282248819     
  0.22331256962914681     
  0.18326788962008911     
  0.13618032739074826     
   8.3859431550588281E-002
   2.8315864784850053E-002
  -9.5610974661834106E-003
  -2.8315864784850018E-002
  -4.5982469299554761E-002
  -6.1881993306343488E-002
  -7.5403427014191116E-002
  -8.6027149308612369E-002
  -9.3344896499684846E-002
  -9.7075451666695470E-002
  -9.7075451666695484E-002
  -9.3344896499684846E-002
  -8.6027149308612383E-002
  -7.5403427014191129E-002
  -6.1881993306343488E-002
  -4.5982469299554761E-002
  -2.8315864784850042E-002
  -9.5610974661834314E-003
   9.5610974661834106E-003
   2.8315864784850025E-002
   4.5982469299554733E-002
   6.1881993306343502E-002
   7.5403427014191102E-002
   8.6027149308612397E-002
   9.3344896499684846E-002
   9.7075451666695511E-002
   9.7075451666695470E-002
   9.3344896499684860E-002
   8.6027149308612383E-002
   7.5403427014191143E-002
   6.1881993306343488E-002
   4.5982469299554796E-002
   2.8315864784850084E-002
   9.5610974661834245E-003
   9.5610974661834228E-003
   2.8315864784850053E-002
   4.5982469299554830E-002
   6.1881993306343579E-002
   7.5403427014191171E-002
   8.6027149308612522E-002
   9.3344896499684929E-002
   9.7075451666695567E-002
   9.7075451666695595E-002
   9.3344896499684957E-002
   8.6027149308612494E-002
   7.5403427014191213E-002
   6.1881993306343558E-002
   4.5982469299554837E-002
   2.8315864784850080E-002
   9.5610974661834453E-003
  -9.5610974661834210E-003
  -2.8315864784850073E-002
  -4.5982469299554796E-002
  -6.1881993306343558E-002
  -7.5403427014191199E-002
  -8.6027149308612480E-002
  -9.3344896499684971E-002
  -9.7075451666695581E-002
  -9.7075451666695581E-002
  -9.3344896499684957E-002
  -8.6027149308612522E-002
  -7.5403427014191199E-002
  -6.1881993306343579E-002
  -4.5982469299554865E-002
  -2.8315864784850112E-002
  -9.5610974661834418E-003
   2.8315864784850008E-002
   8.3859431550588129E-002
  0.13618032739074820     
  0.18326788962008916     
  0.22331256962914695     
  0.25477547282248814     
  0.27644749747499242     
  0.28749579983307549     
  0.28749579983307560     
  0.27644749747499248     
  0.25477547282248830     
  0.22331256962914686     
  0.18326788962008925     
  0.13618032739074823     
   8.3859431550588254E-002
   2.8315864784850077E-002
  -2.8315864784850014E-002
  -8.3859431550588170E-002
 -0.13618032739074817     
 -0.18326788962008919     
 -0.22331256962914681     
 -0.25477547282248825     
 -0.27644749747499248     
 -0.28749579983307560     
 -0.28749579983307566     
 -0.27644749747499242     
 -0.25477547282248819     
 -0.22331256962914689     
 -0.18326788962008922     
 -0.13618032739074831     
  -8.3859431550588365E-002
  -2.8315864784850039E-002
   4.5982469299554754E-002
  0.13618032739074826     
  0.22114485187112268     
  0.29761090371355176     
  0.36263993542838646     
  0.41373291779552729     
  0.44892637615587927     
  0.46686784564137296     
  0.46686784564137312     
  0.44892637615587910     
  0.41373291779552746     
  0.36263993542838657     
  0.29761090371355170     
  0.22114485187112282     
  0.13618032739074834     
   4.5982469299554886E-002
  -4.5982469299554775E-002
 -0.13618032739074828     
 -0.22114485187112262     
 -0.29761090371355159     
 -0.36263993542838663     
 -0.41373291779552729     
 -0.44892637615587899     
 -0.46686784564137307     
 -0.46686784564137290     
 -0.44892637615587927     
 -0.41373291779552746     
 -0.36263993542838663     
 -0.29761090371355170     
 -0.22114485187112287     
 -0.13618032739074859     
  -4.5982469299554823E-002
   6.1881993306343488E-002
  0.18326788962008927     
  0.29761090371355159     
  0.40051689767941984     
  0.48803125187993190     
  0.55679083876177748     
  0.60415326596190733     
  0.62829842196417607     
  0.62829842196417618     
  0.60415326596190744     
  0.55679083876177737     
  0.48803125187993207     
  0.40051689767941984     
  0.29761090371355159     
  0.18326788962008939     
   6.1881993306343662E-002
  -6.1881993306343509E-002
 -0.18326788962008925     
 -0.29761090371355153     
 -0.40051689767941984     
 -0.48803125187993202     
 -0.55679083876177715     
 -0.60415326596190744     
 -0.62829842196417607     
 -0.62829842196417618     
 -0.60415326596190710     
 -0.55679083876177748     
 -0.48803125187993190     
 -0.40051689767941989     
 -0.29761090371355181     
 -0.18326788962008972     
  -6.1881993306343572E-002
   7.5403427014191116E-002
  0.22331256962914678     
  0.36263993542838652     
  0.48803125187993179     
  0.59466780101281058     
  0.67845160004631222     
  0.73616288457007406     
  0.76558384228471066     
  0.76558384228471110     
  0.73616288457007406     
  0.67845160004631255     
  0.59466780101281069     
  0.48803125187993185     
  0.36263993542838652     
  0.22331256962914714     
   7.5403427014191254E-002
  -7.5403427014191116E-002
 -0.22331256962914686     
 -0.36263993542838641     
 -0.48803125187993179     
 -0.59466780101281036     
 -0.67845160004631222     
 -0.73616288457007417     
 -0.76558384228471110     
 -0.76558384228471088     
 -0.73616288457007428     
 -0.67845160004631211     
 -0.59466780101281091     
 -0.48803125187993196     
 -0.36263993542838663     
 -0.22331256962914742     
  -7.5403427014191199E-002
   8.6027149308612383E-002
  0.25477547282248819     
  0.41373291779552696     
  0.55679083876177715     
  0.67845160004631233     
  0.77403984682110771     
  0.83988217636911544     
  0.87344830489060876     
  0.87344830489060865     
  0.83988217636911555     
  0.77403984682110771     
  0.67845160004631233     
  0.55679083876177704     
  0.41373291779552712     
  0.25477547282248836     
   8.6027149308612633E-002
  -8.6027149308612424E-002
 -0.25477547282248814     
 -0.41373291779552701     
 -0.55679083876177693     
 -0.67845160004631233     
 -0.77403984682110749     
 -0.83988217636911544     
 -0.87344830489060876     
 -0.87344830489060898     
 -0.83988217636911533     
 -0.77403984682110771     
 -0.67845160004631255     
 -0.55679083876177704     
 -0.41373291779552746     
 -0.25477547282248864     
  -8.6027149308612536E-002
   9.3344896499684860E-002
  0.27644749747499248     
  0.44892637615587910     
  0.60415326596190744     
  0.73616288457007428     
  0.83988217636911555     
  0.91132526714164219     
  0.94774663897501377     
  0.94774663897501410     
  0.91132526714164219     
  0.83988217636911600     
  0.73616288457007450     
  0.60415326596190755     
  0.44892637615587899     
  0.27644749747499286     
   9.3344896499685054E-002
  -9.3344896499684832E-002
 -0.27644749747499270     
 -0.44892637615587883     
 -0.60415326596190733     
 -0.73616288457007428     
 -0.83988217636911577     
 -0.91132526714164175     
 -0.94774663897501377     
 -0.94774663897501410     
 -0.91132526714164219     
 -0.83988217636911588     
 -0.73616288457007462     
 -0.60415326596190733     
 -0.44892637615587944     
 -0.27644749747499320     
  -9.3344896499684984E-002
   9.7075451666695400E-002
  0.28749579983307572     
  0.46686784564137279     
  0.62829842196417607     
  0.76558384228471088     
  0.87344830489060898     
  0.94774663897501388     
  0.98562360122604697     
  0.98562360122604720     
  0.94774663897501388     
  0.87344830489060898     
  0.76558384228471110     
  0.62829842196417618     
  0.46686784564137290     
  0.28749579983307594     
   9.7075451666695664E-002
  -9.7075451666695414E-002
 -0.28749579983307577     
 -0.46686784564137263     
 -0.62829842196417629     
 -0.76558384228471099     
 -0.87344830489060898     
 -0.94774663897501366     
 -0.98562360122604720     
 -0.98562360122604742     
 -0.94774663897501354     
 -0.87344830489060932     
 -0.76558384228471088     
 -0.62829842196417640     
 -0.46686784564137296     
 -0.28749579983307633     
  -9.7075451666695567E-002
   9.7075451666695400E-002
  0.28749579983307572     
  0.46686784564137279     
  0.62829842196417607     
  0.76558384228471088     
  0.87344830489060898     
  0.94774663897501388     
  0.98562360122604697     
  0.98562360122604720     
  0.94774663897501388     
  0.87344830489060898     
  0.76558384228471110     
  0.62829842196417618     
  0.46686784564137290     
  0.28749579983307594     
   9.7075451666695664E-002
  -9.7075451666695414E-002
 -0.28749579983307577     
 -0.46686784564137263     
 -0.62829842196417629     
 -0.76558384228471099     
 -0.87344830489060898     
 -0.94774663897501366     
 -0.98562360122604720     
 -0.98562360122604742     
 -0.94774663897501354     
 -0.87344830489060932     
 -0.76558384228471088     
 -0.62829842196417640     
 -0.46686784564137296     
 -0.28749579983307633     
  -9.7075451666695567E-002
   9.3344896499684860E-002
  0.27644749747499248     
  0.44892637615587910     
  0.60415326596190744     
  0.73616288457007428     
  0.83988217636911555     
  0.91132526714164219     
  0.94774663897501377     
  0.94774663897501410     
  0.91132526714164219     
  0.83988217636911600     
  0.73616288457007450     
  0.60415326596190755     
  0.44892637615587899     
  0.27644749747499286     
   9.3344896499685054E-002
  -9.3344896499684832E-002
 -0.27644749747499270     
 -0.44892637615587883     
 -0.60415326596190733     
 -0.73616288457007428     
 -0.83988217636911577     
 -0.91132526714164175     
 -0.94774663897501377     
 -0.94774663897501410     
 -0.91132526714164219     
 -0.83988217636911588     
 -0.73616288457007462     
 -0.60415326596190733     
 -0.44892637615587944     
 -0.27644749747499320     
  -9.3344896499684984E-002
   8.6027149308612383E-002
  0.25477547282248819     
  0.41373291779552696     
  0.55679083876177715     
  0.67845160004631233     
  0.77403984682110771     
  0.83988217636911544     
  0.87344830489060876     
  0.87344830489060865     
  0.83988217636911555     
  0.77403984682110771     
  0.67845160004631233     
  0.55679083876177704     
  0.41373291779552712     
  0.25477547282248836     
   8.6027149308612633E-002
  -8.6027149308612424E-002
 -0.25477547282248814     
 -0.41373291779552701     
 -0.55679083876177693     
 -0.67845160004631233     
 -0.77403984682110749     
 -0.83988217636911544     
 -0.87344830489060876     
 -0.87344830489060898     
 -0.83988217636911533     
 -0.77403984682110771     
 -0.67845160004631255     
 -0.55679083876177704     
 -0.41373291779552746     
 -0.25477547282248864     
  -8.6027149308612536E-002
   7.5403427014191116E-002
  0.22331256962914678     
  0.36263993542838652     
  0.48803125187993179     
  0.59466780101281058     
  0.67845160004631222     
  0.73616288457007406     
  0.76558384228471066     
  0.76558384228471110     
  0.73616288457007406     
  0.67845160004631255     
  0.59466780101281069     
  0.48803125187993185     
  0.36263993542838652     
  0.22331256962914714     
   7.5403427014191254E-002
  -7.5403427014191116E-002
 -0.22331256962914686     
 -0.36263993542838641     
 -0.48803125187993179     
 -0.59466780101281036     
 -0.67845160004631222     
 -0.73616288457007417     
 -0.76558384228471110     
 -0.76558384228471088     
 -0.73616288457007428     
 -0.67845160004631211     
 -0.59466780101281091     
 -0.48803125187993196     
 -0.36263993542838663     
 -0.22331256962914742     
  -7.5403427014191199E-002
   6.1881993306343530E-002
  0.18326788962008939     
  0.29761090371355176     
  0.40051689767942006     
  0.48803125187993202     
  0.55679083876177771     
  0.60415326596190733     
  0.62829842196417662     
  0.62829842196417651     
  0.60415326596190766     
  0.55679083876177760     
  0.48803125187993235     
  0.40051689767941995     
  0.29761090371355176     
  0.18326788962008955     
   6.1881993306343676E-002
  -6.1881993306343530E-002
 -0.18326788962008939     
 -0.29761090371355164     
 -0.40051689767942006     
 -0.48803125187993202     
 -0.55679083876177782     
 -0.60415326596190733     
 -0.62829842196417673     
 -0.62829842196417673     
 -0.60415326596190755     
 -0.55679083876177748     
 -0.48803125187993257     
 -0.40051689767941989     
 -0.29761090371355198     
 -0.18326788962008977     
  -6.1881993306343641E-002
   4.5982469299554754E-002
  0.13618032739074826     
  0.22114485187112268     
  0.29761090371355176     
  0.36263993542838646     
  0.41373291779552729     
  0.44892637615587927     
  0.46686784564137296     
  0.46686784564137312     
  0.44892637615587910     
  0.41373291779552746     
  0.36263993542838657     
  0.29761090371355170     
  0.22114485187112282     
  0.13618032739074834     
   4.5982469299554886E-002
  -4.5982469299554775E-002
 -0.13618032739074828     
 -0.22114485187112262     
 -0.29761090371355159     
 -0.36263993542838663     
 -0.41373291779552729     
 -0.44892637615587899     
 -0.46686784564137307     
 -0.46686784564137290     
 -0.44892637615587927     
 -0.41373291779552746     
 -0.36263993542838663     
 -0.29761090371355170     
 -0.22114485187112287     
 -0.13618032739074859     
  -4.5982469299554823E-002
   2.8315864784850008E-002
   8.3859431550588129E-002
  0.13618032739074820     
  0.18326788962008916     
  0.22331256962914695     
  0.25477547282248814     
  0.27644749747499242     
  0.28749579983307549     
  0.28749579983307560     
  0.27644749747499248     
  0.25477547282248830     
  0.22331256962914686     
  0.18326788962008925     
  0.13618032739074823     
   8.3859431550588254E-002
   2.8315864784850077E-002
  -2.8315864784850014E-002
  -8.3859431550588170E-002
 -0.13618032739074817     
 -0.18326788962008919     
 -0.22331256962914681     
 -0.25477547282248825     
 -0.27644749747499248     
 -0.28749579983307560     
 -0.28749579983307566     
 -0.27644749747499242     
 -0.25477547282248819     
 -0.22331256962914689     
 -0.18326788962008922     