# vtk DataFile Version 4.0
ivtk output
ASCII
DATASET STRUCTURED_GRID
DIMENSIONS 8 8 8
POINTS 512 float32
   0.0000000000000000        0.0000000000000000        0.0000000000000000     
  0.10000000000000001        0.0000000000000000        0.0000000000000000     
  0.20000000000000001        0.0000000000000000        0.0000000000000000     
  0.30000000000000004        0.0000000000000000        0.0000000000000000     
  0.40000000000000002        0.0000000000000000        0.0000000000000000     
  0.50000000000000000        0.0000000000000000        0.0000000000000000     
  0.60000000000000009        0.0000000000000000        0.0000000000000000     
  0.70000000000000007        0.0000000000000000        0.0000000000000000     
   0.0000000000000000       0.10000000000000001        0.0000000000000000     
  0.10000000000000001       0.10000000000000001        0.0000000000000000     
  0.20000000000000001       0.10000000000000001        0.0000000000000000     
  0.30000000000000004       0.10000000000000001        0.0000000000000000     
  0.40000000000000002       0.10000000000000001        0.0000000000000000     
  0.50000000000000000       0.10000000000000001        0.0000000000000000     
  0.60000000000000009       0.10000000000000001        0.0000000000000000     
  0.70000000000000007       0.10000000000000001        0.0000000000000000     
   0.0000000000000000       0.20000000000000001        0.0000000000000000     
  0.10000000000000001       0.20000000000000001        0.0000000000000000     
  0.20000000000000001       0.20000000000000001        0.0000000000000000     
  0.30000000000000004       0.20000000000000001        0.0000000000000000     
  0.40000000000000002       0.20000000000000001        0.0000000000000000     
  0.50000000000000000       0.20000000000000001        0.0000000000000000     
  0.60000000000000009       0.20000000000000001        0.0000000000000000     
  0.70000000000000007       0.20000000000000001        0.0000000000000000     
   0.0000000000000000       0.30000000000000004        0.0000000000000000     
  0.10000000000000001       0.30000000000000004        0.0000000000000000     
  0.20000000000000001       0.30000000000000004        0.0000000000000000     
  0.30000000000000004       0.30000000000000004        0.0000000000000000     
  0.40000000000000002       0.30000000000000004        0.0000000000000000     
  0.50000000000000000       0.30000000000000004        0.0000000000000000     
  0.60000000000000009       0.30000000000000004        0.0000000000000000     
  0.70000000000000007       0.30000000000000004        0.0000000000000000     
   0.0000000000000000       0.40000000000000002        0.0000000000000000     
  0.10000000000000001       0.40000000000000002        0.0000000000000000     
  0.20000000000000001       0.40000000000000002        0.0000000000000000     
  0.30000000000000004       0.40000000000000002        0.0000000000000000     
  0.40000000000000002       0.40000000000000002        0.0000000000000000     
  0.50000000000000000       0.40000000000000002        0.0000000000000000     
  0.60000000000000009       0.40000000000000002        0.0000000000000000     
  0.70000000000000007       0.40000000000000002        0.0000000000000000     
   0.0000000000000000       0.50000000000000000        0.0000000000000000     
  0.10000000000000001       0.50000000000000000        0.0000000000000000     
  0.20000000000000001       0.50000000000000000        0.0000000000000000     
  0.30000000000000004       0.50000000000000000        0.0000000000000000     
  0.40000000000000002       0.50000000000000000        0.0000000000000000     
  0.50000000000000000       0.50000000000000000        0.0000000000000000     
  0.60000000000000009       0.50000000000000000        0.0000000000000000     
  0.70000000000000007       0.50000000000000000        0.0000000000000000     
   0.0000000000000000       0.60000000000000009        0.0000000000000000     
  0.10000000000000001       0.60000000000000009        0.0000000000000000     
  0.20000000000000001       0.60000000000000009        0.0000000000000000     
  0.30000000000000004       0.60000000000000009        0.0000000000000000     
  0.40000000000000002       0.60000000000000009        0.0000000000000000     
  0.50000000000000000       0.60000000000000009        0.0000000000000000     
  0.60000000000000009       0.60000000000000009        0.0000000000000000     
  0.70000000000000007       0.60000000000000009        0.0000000000000000     
   0.0000000000000000       0.70000000000000007        0.0000000000000000     
  0.10000000000000001       0.70000000000000007        0.0000000000000000     
  0.20000000000000001       0.70000000000000007        0.0000000000000000     
  0.30000000000000004       0.70000000000000007        0.0000000000000000     
  0.40000000000000002       0.70000000000000007        0.0000000000000000     
  0.50000000000000000       0.70000000000000007        0.0000000000000000     
  0.60000000000000009       0.70000000000000007        0.0000000000000000     
  0.70000000000000007       0.70000000000000007        0.0000000000000000     
   0.0000000000000000        0.0000000000000000       0.10000000000000001     
  0.10000000000000001        0.0000000000000000       0.10000000000000001     
  0.20000000000000001        0.0000000000000000       0.10000000000000001     
  0.30000000000000004        0.0000000000000000       0.10000000000000001     
  0.40000000000000002        0.0000000000000000       0.10000000000000001     
  0.50000000000000000        0.0000000000000000       0.10000000000000001     
  0.60000000000000009        0.0000000000000000       0.10000000000000001     
  0.70000000000000007        0.0000000000000000       0.10000000000000001     
   0.0000000000000000       0.10000000000000001       0.10000000000000001     
  0.10000000000000001       0.10000000000000001       0.10000000000000001     
  0.20000000000000001       0.10000000000000001       0.10000000000000001     
  0.30000000000000004       0.10000000000000001       0.10000000000000001     
  0.40000000000000002       0.10000000000000001       0.10000000000000001     
  0.50000000000000000       0.10000000000000001       0.10000000000000001     
  0.60000000000000009       0.10000000000000001       0.10000000000000001     
  0.70000000000000007       0.10000000000000001       0.10000000000000001     
   0.0000000000000000       0.20000000000000001       0.10000000000000001     
  0.10000000000000001       0.20000000000000001       0.10000000000000001     
  0.20000000000000001       0.20000000000000001       0.10000000000000001     
  0.30000000000000004       0.20000000000000001       0.10000000000000001     
  0.40000000000000002       0.20000000000000001       0.10000000000000001     
  0.50000000000000000       0.20000000000000001       0.10000000000000001     
  0.60000000000000009       0.20000000000000001       0.10000000000000001     
  0.70000000000000007       0.20000000000000001       0.10000000000000001     
   0.0000000000000000       0.30000000000000004       0.10000000000000001     
  0.10000000000000001       0.30000000000000004       0.10000000000000001     
  0.20000000000000001       0.30000000000000004       0.10000000000000001     
  0.30000000000000004       0.30000000000000004       0.10000000000000001     
  0.40000000000000002       0.30000000000000004       0.10000000000000001     
  0.50000000000000000       0.30000000000000004       0.10000000000000001     
  0.60000000000000009       0.30000000000000004       0.10000000000000001     
  0.70000000000000007       0.30000000000000004       0.10000000000000001     
   0.0000000000000000       0.40000000000000002       0.10000000000000001     
  0.10000000000000001       0.40000000000000002       0.10000000000000001     
  0.20000000000000001       0.40000000000000002       0.10000000000000001     
  0.30000000000000004       0.40000000000000002       0.10000000000000001     
  0.40000000000000002       0.40000000000000002       0.10000000000000001     
  0.50000000000000000       0.40000000000000002       0.10000000000000001     
  0.60000000000000009       0.40000000000000002       0.10000000000000001     
  0.70000000000000007       0.40000000000000002       0.10000000000000001     
   0.0000000000000000       0.50000000000000000       0.10000000000000001     
  0.10000000000000001       0.50000000000000000       0.10000000000000001     
  0.20000000000000001       0.50000000000000000       0.10000000000000001     
  0.30000000000000004       0.50000000000000000       0.10000000000000001     
  0.40000000000000002       0.50000000000000000       0.10000000000000001     
  0.50000000000000000       0.50000000000000000       0.10000000000000001     
  0.60000000000000009       0.50000000000000000       0.10000000000000001     
  0.70000000000000007       0.50000000000000000       0.10000000000000001     
   0.0000000000000000       0.60000000000000009       0.10000000000000001     
  0.10000000000000001       0.60000000000000009       0.10000000000000001     
  0.20000000000000001       0.60000000000000009       0.10000000000000001     
  0.30000000000000004       0.60000000000000009       0.10000000000000001     
  0.40000000000000002       0.60000000000000009       0.10000000000000001     
  0.50000000000000000       0.60000000000000009       0.10000000000000001     
  0.60000000000000009       0.60000000000000009       0.10000000000000001     
  0.70000000000000007       0.60000000000000009       0.10000000000000001     
   0.0000000000000000       0.70000000000000007       0.10000000000000001     
  0.10000000000000001       0.70000000000000007       0.10000000000000001     
  0.20000000000000001       0.70000000000000007       0.10000000000000001     
  0.30000000000000004       0.70000000000000007       0.10000000000000001     
  0.40000000000000002       0.70000000000000007       0.10000000000000001     
[...]
CELL_DATA       512
SCALARS ux float32         1
LOOKUP_TABLE default
  0.17826097659816664     
  0.17826097659816664     
  0.17826097659816664     
  0.17826097659816664     
  0.17826097659816664     
  0.17826097659816664     
  0.17826097659816664     
  0.17826097659816664     
  0.53984012464556463     
  0.53984012464556463     
  0.53984012464556463     
  0.53984012464556463     
  0.53984012464556463     
  0.53984012464556463     
  0.53984012464556463     
  0.53984012464556463     
  0.96275849058482499     
  0.96275849058482499     
  0.96275849058482499     
  0.96275849058482499     
  0.96275849058482499     
  0.96275849058482499     
  0.96275849058482499     
  0.96275849058482499     
   1.4163874030611050     
   1.4163874030611050     
   1.4163874030611050     
   1.4163874030611050     
   1.4163874030611050     
   1.4163874030611050     
   1.4163874030611050     
   1.4163874030611050     
   1.4163874030611052     
   1.4163874030611052     
   1.4163874030611052     
   1.4163874030611052     
   1.4163874030611052     
   1.4163874030611052     
   1.4163874030611052     
   1.4163874030611052     
  0.96275849058482543     
  0.96275849058482543     
  0.96275849058482543     
  0.96275849058482543     
  0.96275849058482543     
  0.96275849058482543     
  0.96275849058482543     
  0.96275849058482543     
  0.53984012464556619     
  0.53984012464556619     
  0.53984012464556619     
  0.53984012464556619     
  0.53984012464556619     
  0.53984012464556619     
  0.53984012464556619     
  0.53984012464556619     
  0.17826097659816925     
  0.17826097659816925     
  0.17826097659816925     
  0.17826097659816925     
  0.17826097659816925     
  0.17826097659816925     
  0.17826097659816925     
  0.17826097659816925     
  0.17826097659816664     
  0.17826097659816664     
  0.17826097659816664     
  0.17826097659816664     
  0.17826097659816664     
  0.17826097659816664     
  0.17826097659816664     
  0.17826097659816664     
  0.53984012464556463     
  0.53984012464556463     
  0.53984012464556463     
  0.53984012464556463     
  0.53984012464556463     
  0.53984012464556463     
  0.53984012464556463     
  0.53984012464556463     
  0.96275849058482499     
  0.96275849058482499     
  0.96275849058482499     
  0.96275849058482499     
  0.96275849058482499     
  0.96275849058482499     
  0.96275849058482499     
  0.96275849058482499     
   1.4163874030611050     
   1.4163874030611050     
   1.4163874030611050     
   1.4163874030611050     
   1.4163874030611050     
   1.4163874030611050     
   1.4163874030611050     
   1.4163874030611050     
   1.4163874030611052     
   1.4163874030611052     
   1.4163874030611052     
   1.4163874030611052     
   1.4163874030611052     
   1.4163874030611052     
   1.4163874030611052     
   1.4163874030611052     
  0.96275849058482543     
  0.96275849058482543     
  0.96275849058482543     
  0.96275849058482543     
  0.96275849058482543     
  0.96275849058482543     
  0.96275849058482543     
  0.96275849058482543     
  0.53984012464556619     
  0.53984012464556619     
  0.53984012464556619     
  0.53984012464556619     
  0.53984012464556619     
  0.53984012464556619     
  0.53984012464556619     
  0.53984012464556619     
  0.17826097659816925     
  0.17826097659816925     
  0.17826097659816925     
  0.17826097659816925     
  0.17826097659816925     
  0.17826097659816925     
  0.17826097659816925     
  0.17826097659816925     
  0.17826097659816664     
  0.17826097659816664     
  0.17826097659816664     
  0.17826097659816664     
  0.17826097659816664     
  0.17826097659816664     
  0.17826097659816664     
  0.17826097659816664     
  0.53984012464556463     
  0.53984012464556463     
  0.53984012464556463     
  0.53984012464556463     
  0.53984012464556463     
  0.53984012464556463     
  0.53984012464556463     
  0.53984012464556463     
  0.96275849058482499     
  0.96275849058482499     
  0.96275849058482499     
  0.96275849058482499     
  0.96275849058482499     
  0.96275849058482499     
  0.96275849058482499     
  0.96275849058482499     
   1.4163874030611050     
   1.4163874030611050     
   1.4163874030611050     
   1.4163874030611050     
   1.4163874030611050     
   1.4163874030611050     
   1.4163874030611050     
   1.4163874030611050     
   1.4163874030611052     
   1.4163874030611052     
   1.4163874030611052     
   1.4163874030611052     
   1.4163874030611052     
   1.4163874030611052     
   1.4163874030611052     
   1.4163874030611052     
  0.96275849058482543     
  0.96275849058482543     
  0.96275849058482543     
  0.96275849058482543     
  0.96275849058482543     
  0.96275849058482543     
  0.96275849058482543     
  0.96275849058482543     
  0.53984012464556619     
  0.53984012464556619     
  0.53984012464556619     
  0.53984012464556619     
  0.53984012464556619     
  0.53984012464556619     
  0.53984012464556619     
  0.53984012464556619     
  0.17826097659816925     
  0.17826097659816925     
  0.17826097659816925     
  0.17826097659816925     
  0.17826097659816925     
  0.17826097659816925     
  0.17826097659816925     
  0.17826097659816925     
  0.17826097659816664     
  0.17826097659816664     
  0.17826097659816664     
  0.17826097659816664     
  0.17826097659816664     
  0.17826097659816664     
  0.17826097659816664     
  0.17826097659816664     
  0.53984012464556463     
  0.53984012464556463     
  0.53984012464556463     
  0.53984012464556463     
  0.53984012464556463     
  0.53984012464556463     
  0.53984012464556463     
  0.53984012464556463     
  0.96275849058482499     
  0.96275849058482499     
  0.96275849058482499     
  0.96275849058482499     
  0.96275849058482499     
  0.96275849058482499     
  0.96275849058482499     
  0.96275849058482499     
   1.4163874030611050     
   1.4163874030611050     
   1.4163874030611050     
   1.4163874030611050     
   1.4163874030611050     
   1.4163874030611050     
   1.4163874030611050     
   1.4163874030611050     
   1.4163874030611052     
   1.4163874030611052     
   1.4163874030611052     
   1.4163874030611052     
   1.4163874030611052     
   1.4163874030611052     
   1.4163874030611052     
   1.4163874030611052     
  0.96275849058482543     
  0.96275849058482543     
  0.96275849058482543     
  0.96275849058482543     
  0.96275849058482543     
  0.96275849058482543     
  0.96275849058482543     
  0.96275849058482543     
  0.53984012464556619     
  0.53984012464556619     
  0.53984012464556619     
  0.53984012464556619     
  0.53984012464556619     
  0.53984012464556619     
  0.53984012464556619     
  0.53984012464556619     
  0.17826097659816925     
  0.17826097659816925     
  0.17826097659816925     
  0.17826097659816925     
  0.17826097659816925     
  0.17826097659816925     
  0.17826097659816925     
  0.17826097659816925     
  0.17826097659816664     
  0.17826097659816664     
  0.17826097659816664     
  0.17826097659816664     
  0.17826097659816664     
  0.17826097659816664     
  0.17826097659816664     
  0.17826097659816664     
  0.53984012464556463     
  0.53984012464556463     
  0.53984012464556463     
  0.53984012464556463     
  0.53984012464556463     
  0.53984012464556463     
  0.53984012464556463     
  0.53984012464556463     
  0.96275849058482499     
  0.96275849058482499     
  0.96275849058482499     
  0.96275849058482499     
  0.96275849058482499     
  0.96275849058482499     
  0.96275849058482499     
  0.96275849058482499     
   1.4163874030611050     
   1.4163874030611050     
   1.4163874030611050     
   1.4163874030611050     
   1.4163874030611050     
   1.4163874030611050     
   1.4163874030611050     
   1.4163874030611050     
   1.4163874030611052     
   1.4163874030611052     
   1.4163874030611052     
   1.4163874030611052     
   1.4163874030611052     
   1.4163874030611052     
   1.4163874030611052     
   1.4163874030611052     
  0.96275849058482543     
  0.96275849058482543     
  0.96275849058482543     
  0.96275849058482543     
  0.96275849058482543     
  0.96275849058482543     
  0.96275849058482543     
  0.96275849058482543     
  0.53984012464556619     
  0.53984012464556619     
  0.53984012464556619     
  0.53984012464556619     
  0.53984012464556619     
  0.53984012464556619     
  0.53984012464556619     
  0.53984012464556619     
  0.17826097659816925     
  0.17826097659816925     
  0.17826097659816925     
  0.17826097659816925     
  0.17826097659816925     
  0.17826097659816925     
  0.17826097659816925     
  0.17826097659816925     
  0.17826097659816664     
  0.17826097659816664     
  0.17826097659816664     
  0.17826097659816664     
  0.17826097659816664     
  0.17826097659816664     
  0.17826097659816664     
  0.17826097659816664     
  0.53984012464556463     
  0.53984012464556463     
  0.53984012464556463     
  0.53984012464556463     
  0.53984012464556463     
  0.53984012464556463     
  0.53984012464556463     
  0.53984012464556463     
  0.96275849058482499     
  0.96275849058482499     
  0.96275849058482499     
  0.96275849058482499     
  0.96275849058482499     
  0.96275849058482499     
  0.96275849058482499     
  0.96275849058482499     
   1.4163874030611050     
   1.4163874030611050     
   1.4163874030611050     
   1.4163874030611050     
   1.4163874030611050     
   1.4163874030611050     
   1.4163874030611050     
   1.4163874030611050     
   1.4163874030611052     
   1.4163874030611052     
   1.4163874030611052     
   1.4163874030611052     
   1.4163874030611052     
   1.4163874030611052     
   1.4163874030611052     
   1.4163874030611052     
  0.96275849058482543     
  0.96275849058482543     
  0.96275849058482543     
  0.96275849058482543     
  0.96275849058482543     
  0.96275849058482543     
  0.96275849058482543     
  0.96275849058482543     
  0.53984012464556619     
  0.53984012464556619     
  0.53984012464556619     
  0.53984012464556619     
  0.53984012464556619     
  0.53984012464556619     
  0.53984012464556619     
  0.53984012464556619     
  0.17826097659816925     
  0.17826097659816925     
  0.17826097659816925     
  0.17826097659816925     
  0.17826097659816925     
  0.17826097659816925     
  0.17826097659816925     
  0.17826097659816925     
  0.17826097659816664     
  0.17826097659816664     
  0.17826097659816664     
  0.17826097659816664     
  0.17826097659816664     
  0.17826097659816664     
  0.17826097659816664     
  0.17826097659816664     
  0.53984012464556463     
  0.53984012464556463     
  0.53984012464556463     
  0.53984012464556463     
  0.53984012464556463     
  0.53984012464556463     
  0.53984012464556463     
  0.53984012464556463     
  0.96275849058482499     
  0.96275849058482499     
  0.96275849058482499     
  0.96275849058482499     
  0.96275849058482499     
  0.96275849058482499     
  0.96275849058482499     
  0.96275849058482499     
   1.4163874030611050     
   1.4163874030611050     
   1.4163874030611050     
   1.4163874030611050     
   1.4163874030611050     
   1.4163874030611050     
   1.4163874030611050     
   1.4163874030611050     
   1.4163874030611052     
   1.4163874030611052     
   1.4163874030611052     
   1.4163874030611052     
   1.4163874030611052     
   1.4163874030611052     
   1.4163874030611052     
   1.4163874030611052     
  0.96275849058482543     
  0.96275849058482543     
  0.96275849058482543     
  0.96275849058482543     
  0.96275849058482543     
  0.96275849058482543     
  0.96275849058482543     
  0.96275849058482543     
  0.53984012464556619     
  0.53984012464556619     
  0.53984012464556619     
  0.53984012464556619     
  0.53984012464556619     
  0.53984012464556619     
  0.53984012464556619     
  0.53984012464556619     
  0.17826097659816925     
  0.17826097659816925     
  0.17826097659816925     
  0.17826097659816925     
  0.17826097659816925     
  0.17826097659816925     
  0.17826097659816925     
  0.17826097659816925     
  0.17826097659816664     
  0.17826097659816664     
  0.17826097659816664     
  0.17826097659816664     
  0.17826097659816664     
  0.17826097659816664     
  0.17826097659816664     
  0.17826097659816664     
  0.53984012464556463     
  0.53984012464556463     
  0.53984012464556463     
  0.53984012464556463     
  0.53984012464556463     
  0.53984012464556463     
  0.53984012464556463     
  0.53984012464556463     
  0.96275849058482499     
  0.96275849058482499     
  0.96275849058482499     
  0.96275849058482499     
  0.96275849058482499     
  0.96275849058482499     
  0.96275849058482499     
  0.96275849058482499     
   1.4163874030611050     
   1.4163874030611050     
   1.4163874030611050     
   1.4163874030611050     
   1.4163874030611050     
   1.4163874030611050     
   1.4163874030611050     
   1.4163874030611050     
   1.4163874030611052     
   1.4163874030611052     
   1.4163874030611052     
   1.4163874030611052     
   1.4163874030611052     
   1.4163874030611052     
   1.4163874030611052     
   1.4163874030611052     
  0.96275849058482543     
  0.96275849058482543     
  0.96275849058482543     
  0.96275849058482543     
  0.96275849058482543     
  0.96275849058482543     
  0.96275849058482543     
  0.96275849058482543     
  0.53984012464556619     
  0.53984012464556619     
  0.53984012464556619     
  0.53984012464556619     
  0.53984012464556619     
  0.53984012464556619     
  0.53984012464556619     
  0.53984012464556619     
  0.17826097659816925     
  0.17826097659816925     
  0.17826097659816925     
  0.17826097659816925     
  0.17826097659816925     
  0.17826097659816925     
  0.17826097659816925     
  0.17826097659816925     
