 <VTKFile type="RectilinearGrid" version="0.1" byte_order="LittleEndian">
   <RectilinearGrid WholeExtent="1            8  1            8  1            8 ">
     <Piece Extent="1            8  1            8  1            8 ">
       <Coordinates>
         <DataArray type="Float32" Name="X_COORDINATES" NumberOfComponents="1">
   0.0000000000000000       0.10000000000000001       0.20000000000000001       0.30000000000000004       0.40000000000000002       0.50000000000000000       0.60000000000000009       0.70000000000000007     
         </DataArray>
         <DataArray type="Float32" Name="Y_COORDINATES" NumberOfComponents="1">
   0.0000000000000000       0.10000000000000001       0.20000000000000001       0.30000000000000004       0.40000000000000002       0.50000000000000000       0.60000000000000009       0.70000000000000007     
         </DataArray>
         <DataArray type="Float32" Name="Z_COORDINATES" NumberOfComponents="1">
   0.0000000000000000       0.10000000000000001       0.20000000000000001       0.30000000000000004       0.40000000000000002       0.50000000000000000       0.60000000000000009       0.70000000000000007     
         </DataArray>
       </Coordinates>
       <PointData Scalars="scalar">
         <DataArray Name="ux" type="Float32" NumberOfComponents="1" format="ascii">
  0.17826097659816664       0.17826097659816664       0.17826097659816664       0.17826097659816664       0.17826097659816664       0.17826097659816664       0.17826097659816664       0.17826097659816664       0.53984012464556463       0.53984012464556463       0.53984012464556463       0.53984012464556463       0.53984012464556463       0.53984012464556463       0.53984012464556463       0.53984012464556463       0.96275849058482499       0.96275849058482499       0.96275849058482499       0.96275849058482499       0.96275849058482499       0.96275849058482499       0.96275849058482499       0.96275849058482499        1.4163874030611050        1.4163874030611050        1.4163874030611050        1.4163874030611050        1.4163874030611050        1.4163874030611050        1.4163874030611050        1.4163874030611050        1.4163874030611052        1.4163874030611052        1.4163874030611052        1.4163874030611052        1.4163874030611052        1.4163874030611052        1.4163874030611052        1.4163874030611052       0.96275849058482543       0.96275849058482543       0.96275849058482543       0.96275849058482543       0.96275849058482543       0.96275849058482543       0.96275849058482543       0.96275849058482543       0.53984012464556619       0.53984012464556619       0.53984012464556619       0.53984012464556619       0.53984012464556619       0.53984012464556619       0.53984012464556619       0.53984012464556619       0.17826097659816925       0.17826097659816925       0.17826097659816925       0.17826097659816925       0.17826097659816925       0.17826097659816925       0.17826097659816925       0.17826097659816925       0.17826097659816664       0.17826097659816664       0.17826097659816664       0.17826097659816664       0.17826097659816664       0.17826097659816664       0.17826097659816664       0.17826097659816664       0.53984012464556463       0.53984012464556463       0.53984012464556463       0.53984012464556463       0.53984012464556463       0.53984012464556463       0.53984012464556463       0.53984012464556463       0.96275849058482499       0.96275849058482499       0.96275849058482499       0.96275849058482499       0.96275849058482499       0.96275849058482499       0.96275849058482499       0.96275849058482499        1.4163874030611050        1.4163874030611050        1.4163874030611050        1.4163874030611050        1.4163874030611050        1.4163874030611050        1.4163874030611050        1.4163874030611050        1.4163874030611052        1.4163874030611052        1.4163874030611052        1.4163874030611052        1.4163874030611052        1.4163874030611052        1.4163874030611052        1.4163874030611052       0.96275849058482543       0.96275849058482543       0.96275849058482543       0.96275849058482543       0.96275849058482543       0.96275849058482543       0.96275849058482543       0.96275849058482543       0.53984012464556619       0.53984012464556619       0.53984012464556619       0.53984012464556619       0.53984012464556619       0.53984012464556619       0.53984012464556619       0.53984012464556619       0.17826097659816925       0.17826097659816925       0.17826097659816925       0.17826097659816925       0.17826097659816925       0.17826097659816925       0.17826097659816925       0.17826097659816925       0.17826097659816664       0.17826097659816664       0.17826097659816664       0.17826097659816664       0.17826097659816664       0.17826097659816664       0.17826097659816664       0.17826097659816664       0.53984012464556463       0.53984012464556463       0.53984012464556463       0.53984012464556463       0.53984012464556463       0.53984012464556463       0.53984012464556463       0.53984012464556463       0.96275849058482499       0.96275849058482499       0.96275849058482499       0.96275849058482499       0.96275849058482499       0.96275849058482499       0.96275849058482499       0.96275849058482499        1.4163874030611050        1.4163874030611050        1.4163874030611050        1.4163874030611050        1.4163874030611050        1.4163874030611050        1.4163874030611050        1.4163874030611050        1.4163874030611052        1.4163874030611052        1.4163874030611052        1.4163874030611052        1.4163874030611052        1.4163874030611052        1.4163874030611052        1.4163874030611052       0.96275849058482543       0.96275849058482543       0.96275849058482543       0.96275849058482543       0.96275849058482543       0.96275849058482543       0.96275849058482543       0.96275849058482543       0.53984012464556619       0.53984012464556619       0.53984012464556619       0.53984012464556619       0.53984012464556619       0.53984012464556619       0.53984012464556619       0.53984012464556619       0.17826097659816925       0.17826097659816925       0.17826097659816925       0.17826097659816925       0.17826097659816925       0.17826097659816925       0.17826097659816925       0.17826097659816925       0.17826097659816664       0.17826097659816664       0.17826097659816664       0.17826097659816664       0.17826097659816664       0.17826097659816664       0.17826097659816664       0.17826097659816664       0.53984012464556463       0.53984012464556463       0.53984012464556463       0.53984012464556463       0.53984012464556463       0.53984012464556463       0.53984012464556463       0.53984012464556463       0.96275849058482499       0.96275849058482499       0.96275849058482499       0.96275849058482499       0.96275849058482499       0.96275849058482499       0.96275849058482499       0.96275849058482499        1.4163874030611050        1.4163874030611050        1.4163874030611050        1.4163874030611050        1.4163874030611050        1.4163874030611050        1.4163874030611050        1.4163874030611050        1.4163874030611052        1.4163874030611052        1.4163874030611052        1.4163874030611052        1.4163874030611052        1.4163874030611052        1.4163874030611052        1.4163874030611052       0.96275849058482543       0.96275849058482543       0.96275849058482543       0.96275849058482543       0.96275849058482543       0.96275849058482543       0.96275849058482543       0.96275849058482543       0.53984012464556619       0.53984012464556619       0.53984012464556619       0.53984012464556619       0.53984012464556619       0.53984012464556619       0.53984012464556619       0.53984012464556619       0.17826097659816925       0.17826097659816925       0.17826097659816925       0.17826097659816925       0.17826097659816925       0.17826097659816925       0.17826097659816925       0.17826097659816925       0.17826097659816664       0.17826097659816664       0.17826097659816664       0.17826097659816664       0.17826097659816664       0.17826097659816664       0.17826097659816664       0.17826097659816664       0.53984012464556463       0.53984012464556463       0.53984012464556463       0.53984012464556463       0.53984012464556463       0.53984012464556463       0.53984012464556463       0.53984012464556463       0.96275849058482499       0.96275849058482499       0.96275849058482499       0.96275849058482499       0.96275849058482499       0.96275849058482499       0.96275849058482499       0.96275849058482499        1.4163874030611050        1.4163874030611050        1.4163874030611050        1.4163874030611050        1.4163874030611050        1.4163874030611050        1.4163874030611050        1.4163874030611050        1.4163874030611052        1.4163874030611052        1.4163874030611052        1.4163874030611052        1.4163874030611052        1.4163874030611052        1.4163874030611052        1.4163874030611052       0.96275849058482543       0.96275849058482543       0.96275849058482543       0.96275849058482543       0.96275849058482543       0.96275849058482543       0.96275849058482543       0.96275849058482543       0.53984012464556619       0.53984012464556619       0.53984012464556619       0.53984012464556619       0.53984012464556619       0.53984012464556619       0.53984012464556619       0.53984012464556619       0.17826097659816925       0.17826097659816925       0.17826097659816925       0.17826097659816925       0.17826097659816925       0.17826097659816925       0.17826097659816925       0.17826097659816925       0.17826097659816664       0.17826097659816664       0.17826097659816664       0.17826097659816664       0.17826097659816664       0.17826097659816664       0.17826097659816664       0.17826097659816664       0.53984012464556463       0.53984012464556463       0.53984012464556463       0.53984012464556463       0.53984012464556463       0.53984012464556463       0.53984012464556463       0.53984012464556463       0.96275849058482499       0.96275849058482499       0.96275849058482499       0.96275849058482499       0.96275849058482499       0.96275849058482499       0.96275849058482499       0.96275849058482499        1.4163874030611050        1.4163874030611050        1.4163874030611050        1.4163874030611050        1.4163874030611050        1.4163874030611050        1.4163874030611050        1.4163874030611050        1.4163874030611052        1.4163874030611052        1.4163874030611052        1.4163874030611052        1.4163874030611052        1.4163874030611052        1.4163874030611052        1.4163874030611052       0.96275849058482543       0.96275849058482543       0.96275849058482543       0.96275849058482543       0.96275849058482543       0.96275849058482543       0.96275849058482543       0.96275849058482543       0.53984012464556619       0.53984012464556619       0.53984012464556619       0.53984012464556619       0.53984012464556619       0.53984012464556619       0.53984012464556619       0.53984012464556619       0.17826097659816925       0.17826097659816925       0.17826097659816925       0.17826097659816925       0.17826097659816925       0.17826097659816925       0.17826097659816925       0.17826097659816925       0.17826097659816664       0.17826097659816664       0.17826097659816664       0.17826097659816664       0.17826097659816664       0.17826097659816664       0.17826097659816664       0.17826097659816664       0.53984012464556463       0.53984012464556463       0.53984012464556463       0.53984012464556463       0.53984012464556463       0.53984012464556463       0.53984012464556463       0.53984012464556463       0.96275849058482499       0.96275849058482499       0.96275849058482499       0.96275849058482499       0.96275849058482499       0.96275849058482499       0.96275849058482499       0.96275849058482499        1.4163874030611050        1.4163874030611050        1.4163874030611050        1.4163874030611050        1.4163874030611050        1.4163874030611050        1.4163874030611050        1.4163874030611050        1.4163874030611052        1.4163874030611052        1.4163874030611052        1.4163874030611052        1.4163874030611052        1.4163874030611052        1.4163874030611052        1.4163874030611052       0.96275849058482543       0.96275849058482543       0.96275849058482543       0.96275849058482543       0.96275849058482543       0.96275849058482543       0.96275849058482543       0.96275849058482543       0.53984012464556619       0.53984012464556619       0.53984012464556619       0.53984012464556619       0.53984012464556619       0.53984012464556619       0.53984012464556619       0.53984012464556619       0.17826097659816925       0.17826097659816925       0.17826097659816925       0.17826097659816925       0.17826097659816925       0.17826097659816925       0.17826097659816925       0.17826097659816925       0.17826097659816664       0.17826097659816664       0.17826097659816664       0.17826097659816664       0.17826097659816664       0.17826097659816664       0.17826097659816664       0.17826097659816664       0.53984012464556463       0.53984012464556463       0.53984012464556463       0.53984012464556463       0.53984012464556463       0.53984012464556463       0.53984012464556463       0.53984012464556463       0.96275849058482499       0.96275849058482499       0.96275849058482499       0.96275849058482499       0.96275849058482499       0.96275849058482499       0.96275849058482499       0.96275849058482499        1.4163874030611050        1.4163874030611050        1.4163874030611050        1.4163874030611050        1.4163874030611050        1.4163874030611050        1.4163874030611050        1.4163874030611050        1.4163874030611052        1.4163874030611052        1.4163874030611052        1.4163874030611052        1.4163874030611052        1.4163874030611052        1.4163874030611052        1.4163874030611052       0.96275849058482543       0.96275849058482543       0.96275849058482543       0.96275849058482543       0.96275849058482543       0.96275849058482543       0.96275849058482543       0.96275849058482543       0.53984012464556619       0.53984012464556619       0.53984012464556619       0.53984012464556619       0.53984012464556619       0.53984012464556619       0.53984012464556619       0.53984012464556619       0.17826097659816925       0.17826097659816925       0.17826097659816925       0.17826097659816925       0.17826097659816925       0.17826097659816925       0.17826097659816925       0.17826097659816925     
         </DataArray>
       </PointData>
     </Piece>
   </RectilinearGrid>
 </VTKFile>
